Title
21664
    1LIG     N1    1   1.776   4.619   2.738  0.5261 -0.4554 -0.4032
    1LIG     C1    2   1.883   4.517   2.757  0.8022 -0.6439 -0.2781
    1LIG     C2    3   1.826   4.394   2.828 -0.6020 -0.5971 -0.0935
    1LIG     O1    4   1.737   4.415   2.913  0.2893  0.4790  0.7492
    1LIG     N2    5   1.882   4.277   2.801  0.6154 -0.2601  0.0520
    1LIG     C3    6   1.838   4.167   2.876 -1.3327  0.2013 -1.0588
    1LIG     C4    7   1.953   4.135   2.978  0.6505  0.7827  0.4463
    1LIG     C5    8   1.812   4.053   2.776 -1.1811  0.1903  0.1961
    1LIG     O2    9   2.066   4.100   2.941  0.2719  0.2676  0.0799
    1LIG     C6   10   1.773   3.917   2.837 -0.2220  0.3472  0.7112
    1LIG     C7   11   1.792   3.798   2.733  0.5446  0.1746 -0.0087
    1LIG     C8   12   1.634   3.932   2.904 -0.2699 -0.1946 -0.4961
    1LIG     N3   13   1.925   4.152   3.107 -0.0538  0.9711  0.7014
    1LIG     C9   14   2.029   4.148   3.204 -0.0525 -0.3536  0.0990
    1LIG    C10   15   2.041   4.009   3.276 -0.8821  0.2483 -0.1265
    1LIG    C11   16   2.008   4.256   3.311 -0.2142  0.3203 -0.2336
    1LIG     O3   17   2.011   3.988   3.395  0.7219  0.2919 -0.2089
    1LIG    C12   18   1.999   4.392   3.253 -0.1424  0.9565  0.1616
    1LIG    C13   19   1.875   4.451   3.231  0.9045 -0.0408  0.0047
    1LIG    C14   20   1.868   4.580   3.170 -0.7392 -0.3696  0.4063
    1LIG    C15   21   1.986   4.652   3.140  0.1326 -0.1378 -0.3541
    1LIG    C16   22   2.112   4.595   3.175 -0.5906 -0.1347 -0.5371
    1LIG    C17   23   2.117   4.465   3.233 -0.5107 -0.2071  0.2552
    1LIG     N4   24   2.104   3.907   3.213 -0.0238  0.1550  0.3062
    1LIG    C18   25   2.127   3.771   3.264 -0.4340 -0.1794  0.6161
    1LIG    C19   26   2.120   3.665   3.157  0.0852  1.0068  0.3313
    1LIG     O4   27   2.053   3.681   3.055 -0.4786 -0.3329 -0.0029
    1LIG     N5   28   2.178   3.547   3.198 -0.2946 -0.6010 -0.1131
    1LIG    C20   29   2.175   3.430   3.118 -0.1746 -0.2706 -0.6198
    1LIG    C21   30   2.209   3.307   3.200  0.4429  0.0447  0.0213
    1LIG    C22   31   2.258   3.444   2.986  0.0626 -0.5827  0.3897
    1LIG     O5   32   2.323   3.265   3.208  0.6664  0.1903  0.6996
    1LIG    C23   33   2.398   3.504   3.017 -0.4690 -0.4078  0.3965
    1LIG    C24   34   2.248   3.311   2.913  0.1697  0.0693  0.4015
    1LIG     N6   35   2.109   3.244   3.262  0.3882  0.4630 -0.2078
    1LIG    C25   36   2.126   3.137   3.360 -0.6310 -0.0234  0.3505
    1LIG    C26   37   2.216   3.175   3.474 -0.4375  1.1527 -0.8092
    1LIG    C27   38   1.995   3.095   3.417 -0.3749  0.4713  0.2197
    1LIG     O6   39   2.195   3.281   3.535  0.2172 -0.0166  0.2596
    1LIG    C28   40   1.903   3.014   3.327  0.1567  0.4127  0.8046
    1LIG    C29   41   1.774   3.003   3.409 -0.0803 -0.4463  0.4663
    1LIG    C30   42   1.958   2.873   3.294 -0.6407 -0.9040  0.7160
    1LIG     N7   43   2.320   3.103   3.507 -0.2341  0.2849  0.4723
    1LIG    C31   44   2.399   3.129   3.631 -0.3015 -0.3213 -0.5707
    1LIG    C32   45   2.491   3.006   3.649  0.1817 -0.4647  0.5534
    1LIG    C33   46   2.478   3.259   3.630  0.4767  0.8746 -0.1400
    1LIG     O7   47   2.614   3.020   3.641  0.3218  0.2495 -0.2762
    1LIG     N8   48   2.432   2.881   3.663  0.1493  0.1974 -0.5048
    1LIG    C34   49   2.504   2.757   3.691 -0.1607  0.4635  0.2120
    1LIG    C35   50   2.531   2.706   3.554 -0.2211  0.4650 -0.5208
    1LIG    C36   51   2.414   2.652   3.766  0.4129 -0.1929 -0.1441
    1LIG     O8   52   2.447   2.708   3.465 -0.0241 -0.3876 -0.7752
    1LIG    C37   53   2.393   2.697   3.913 -0.2738  0.1104 -0.1909
    1LIG    C38   54   2.293   2.616   3.994  0.3404  0.2290 -1.1250
    1LIG    C39   55   2.299   2.674   4.138 -0.0751 -0.1856  0.8817
    1LIG     N9   56   2.226   2.593   4.243  0.1624  0.4512 -0.0075
    1LIG    N10   57   2.657   2.652   3.533 -0.9752 -0.1948 -0.4149
    1LIG    C40   58   2.717   2.597   3.404  0.2032  0.0281 -0.8286
    1LIG    C41   59   2.752   2.704   3.299 -0.4769  0.6947 -0.0660
    1LIG    C42   60   2.826   2.489   3.422 -0.3294 -0.6041  0.0024
    1LIG     O9   61   2.868   2.716   3.260  0.1866 -0.1586 -0.3878
    1LIG    C43   62   2.941   2.544   3.515  0.3103 -0.2193  0.0128
    1LIG    C44   63   2.756   2.372   3.497  0.1633 -0.1982  0.3077
    1LIG    N11   64   2.648   2.782   3.254  0.1683 -0.4462  0.1179
    1LIG    C45   65   2.663   2.897   3.166 -0.2733 -0.9680 -0.2482
    1LIG    C46   66   2.581   2.904   3.038  0.1490  0.4046  0.5466
    1LIG    C47   67   2.648   3.030   3.240 -0.0399 -0.1980  0.4149
    1LIG    O10   68   2.603   2.989   2.953 -0.2120  0.3419 -0.0400
    1LIG    N12   69   2.471   2.818   3.025 -0.8213  0.1245 -0.4061
    1LIG    C48   70   2.357   2.843   2.937  0.2051 -0.5440 -0.0312
    1LIG    C49   71   2.306   2.715   2.866 -0.2278  0.0130 -0.7068
    1LIG    C50   72   2.247   2.936   2.991  0.5286 -0.2544  0.1814
    1LIG    O11   73   2.201   2.671   2.912  0.3629  0.4904  0.5581
    1LIG    N13   74   2.375   2.652   2.768  0.2196  0.1253 -0.3800
    1LIG    C51   75   2.319   2.555   2.685 -0.2871  0.8943 -0.3508
    1LIG    C52   76   2.406   2.536   2.558  0.1918  0.3844 -0.0922
    1LIG    C53   77   2.308   2.412   2.751  0.0795  0.0420 -0.4514
    1LIG    O12   78   2.443   2.422   2.527 -0.0628 -0.1733  0.2496
    1LIG    C54   79   2.207   2.314   2.694 -0.1301 -0.1744  0.1925
    1LIG    N14   80   2.126   2.239   2.775  0.5310 -0.1131  0.3638
    1LIG    C55   81   2.063   2.151   2.692 -0.5720 -0.0723 -0.5268
    1LIG    N15   82   2.104   2.171   2.568 -0.1934 -0.5681  0.0629
    1LIG    C56   83   2.193   2.273   2.568  0.3268 -0.1174  0.4744
    1LIG    N16   84   2.448   2.638   2.478  0.1132 -0.2047  0.4036
    1LIG    C57   85   2.535   2.626   2.359  0.8845 -0.6719 -0.4477
    1LIG    C58   86   2.681   2.600   2.404  0.0613 -0.9055  0.6865
    1LIG    C59   87   2.534   2.749   2.268 -0.0108 -0.4345  0.2129
    1LIG    O13   88   2.754   2.681   2.463 -0.1780  0.1185  0.1696
    1LIG    C60   89   2.395   2.759   2.202 -0.2801 -0.5720 -0.1346
    1LIG    C61   90   2.639   2.722   2.157  0.4692 -1.1304 -0.2338
    1LIG    N17   91   2.727   2.478   2.384  0.0802 -0.6535  0.5418
    1LIG    C62   92   2.856   2.430   2.427 -0.6621  0.4653  0.1705
    1LIG    C63   93   2.918   2.346   2.315 -0.7236 -0.1044 -1.3309
    1LIG    C64   94   2.847   2.348   2.551  0.4236  0.0826  0.0024
    1LIG    O14   95   2.867   2.243   2.269 -0.3296  0.0218  0.0834
    1LIG    C65   96   2.734   2.247   2.554 -0.2069  0.2553 -0.2060
    1LIG    C66   97   2.857   2.442   2.672  0.0963 -0.9564 -0.3061
    1LIG    C67   98   3.147   2.535   2.120  0.0146 -0.1072 -0.1634
    1LIG    C68   99   3.227   2.403   2.130  0.2665  0.5185 -0.2009
    1LIG    C69  100   3.126   2.307   2.183 -0.5099  0.6867  0.5289
    1LIG    N18  101   3.045   2.397   2.275  0.0653 -0.1351  0.5377
    1LIG    C70  102   3.070   2.536   2.244  0.4837 -0.6082 -0.7299
    1LIG    C71  103   3.176   2.190   2.264  0.4846 -0.4875 -0.0679
    1LIG    O15  104   3.105   2.137   2.355 -0.3977 -0.1221  0.1576
    1LIG    N19  105   3.298   2.149   2.245  0.6322 -0.4390  0.3303
    1LIG    C72  106   3.363   2.045   2.330 -0.4127 -0.0387  0.3050
    1LIG    C73  107   3.425   2.105   2.462  0.4751  0.4635 -0.0603
    1LIG    C74  108   3.488   1.987   2.251  0.7721 -0.4757 -0.1121
    1LIG    O16  109   3.546   2.115   2.488 -0.3624 -0.5521  0.2300
    1LIG    N20  110   3.326   2.160   2.538  0.0582 -0.4792  0.4206
    1LIG    C75  111   3.362   2.244   2.654  0.2177 -0.6950  0.2121
    1LIG    C76  112   3.242   2.222   2.758  0.5493  0.2879  0.0502
    1LIG    C77  113   3.379   2.396   2.619  0.2394 -0.2437  0.0370
    1LIG    O17  114   3.224   2.309   2.842 -0.1888  0.0240  0.3370
    1LIG    C78  115   3.258   2.464   2.558  0.0359 -0.4037  0.1539
    1LIG    C79  116   3.501   2.430   2.523  0.5514  0.2638  0.3181
    1LIG    C80  117   3.640   2.417   2.582  0.4670  0.1485  0.1039
    1LIG    N21  118   3.169   2.106   2.764  0.4389  0.2263 -0.8567
    1LIG    C81  119   3.051   2.100   2.845 -0.0286  0.7252 -0.0917
    1LIG    C82  120   3.085   2.096   3.001  0.6960  0.0991 -0.4205
    1LIG    C83  121   2.976   1.972   2.799 -0.0219  0.2035 -0.0580
    1LIG    O18  122   3.184   2.033   3.045  0.2365  0.1352  0.3695
    1LIG    N22  123   2.998   2.165   3.083  0.2513 -0.0577  0.0179
    1LIG    C84  124   3.018   2.187   3.235  0.6080 -1.0218 -0.5310
    1LIG    C85  125   3.155   2.177   3.290 -0.6570  0.9827  0.8224
    1LIG    C86  126   2.925   2.102   3.323  0.1611 -0.2103 -0.0541
    1LIG    O19  127   3.205   2.072   3.332 -0.5781  0.0726 -0.0692
    1LIG    C87  128   2.773   2.092   3.274  0.1878 -0.0678  0.8795
    1LIG    C88  129   2.680   2.032   3.369  1.0217 -0.5536 -0.4066
    1LIG    O20  130   2.552   2.088   3.366  0.3295 -0.4907 -0.7957
    1LIG    O21  131   2.698   1.956   3.463 -0.7582 -0.6643 -0.0176
    1LIG    N23  132   3.226   2.293   3.303  0.2646 -0.3798  0.6305
    1LIG    C89  133   3.359   2.291   3.354  0.3589 -0.5037  0.2205
    1LIG    C90  134   3.444   2.308   3.231  0.4383  1.3523  0.0678
    1LIG    C91  135   3.400   2.411   3.442 -0.6564 -0.3008 -0.6029
    1LIG    O22  136   3.452   2.422   3.183 -0.7190  0.2986 -0.1751
    1LIG    C92  137   3.345   2.404   3.574  0.0595  0.5032  0.1336
    1LIG    N24  138   3.237   2.484   3.611  0.2438 -0.4765 -0.2484
    1LIG    C93  139   3.206   2.461   3.741  0.8149 -0.6736  0.0588
    1LIG    N25  140   3.296   2.373   3.787  0.0280  0.1269 -0.0959
    1LIG    C94  141   3.387   2.341   3.691 -0.1531 -0.3904 -0.7575
    1LIG    N26  142   3.498   2.201   3.166 -0.3892 -0.6436  0.2743
    1LIG    C95  143   3.540   2.201   3.024 -0.8527 -0.9178  0.1240
    1LIG    C96  144   3.649   2.309   3.005 -1.3411 -0.1383  0.2567
    1LIG    C97  145   3.602   2.066   2.982  0.2386 -1.3808  0.2027
    1LIG    O23  146   3.652   2.389   2.909 -0.1750 -0.0977 -0.0842
    1LIG    C98  147   3.491   1.958   2.951 -0.9202 -0.7816 -0.2892
    1LIG    C99  148   3.459   1.931   2.821 -0.1309 -0.1430  0.2943
    1LIG   C100  149   3.358   1.830   2.788  0.3322  0.6939  0.3493
    1LIG   C101  150   3.294   1.763   2.892 -0.4398  0.4569  0.1057
    1LIG   C102  151   3.352   1.776   3.023  0.3131 -0.6671 -0.0507
    1LIG   C103  152   3.448   1.875   3.048  0.4788  0.2218  0.0072
    1LIG    N27  153   3.744   2.317   3.101  0.3242  0.5594 -0.0756
    1LIG   C104  154   3.847   2.406   3.107  0.6685  0.6448  1.0235
    1LIG   C105  155   3.852   2.488   3.242 -0.4436  0.3906 -0.4209
    1LIG   C106  156   3.962   2.309   3.108 -0.0120  0.1147  0.2092
    1LIG    N28  157   4.071   2.334   3.026 -0.2080 -0.1234 -0.0049
    1LIG   C107  158   3.771   3.642   3.441  0.2615  0.1036  0.1516
    1LIG   C108  159   3.907   3.594   3.498 -0.1734 -0.4870  0.1340
    1LIG    N29  160   3.901   3.607   3.647  0.1264  0.8943  0.1291
    1LIG   C109  161   3.892   3.515   3.736 -0.0132  0.0837 -0.5599
    1LIG   C110  162   4.025   3.671   3.432  0.4495  0.3526  0.4793
    1LIG   C111  163   4.150   3.615   3.490 -0.2029  0.1554 -0.0152
    1LIG    O24  164   4.225   3.679   3.564  0.2175 -0.1762 -0.0185
    1LIG    N30  165   4.183   3.489   3.462  0.1559 -0.3639 -0.1479
    1LIG   C112  166   4.294   3.416   3.512  0.4243 -0.0460  0.4525
    1LIG   C113  167   4.392   3.355   3.399 -0.5106 -0.5619  0.1127
    1LIG   C114  168   4.246   3.308   3.602 -0.1886  0.3015  0.1151
    1LIG    N31  169   4.226   3.183   3.548 -0.3984 -0.1673  0.2040
    1LIG   C115  170   4.212   3.073   3.635  0.0987  0.1579 -0.3546
    1LIG   C116  171   4.231   2.937   3.561  0.6234  0.2390 -0.0471
    1LIG   C117  172   4.475   3.468   3.330 -0.9904 -0.1245 -0.3360
    1LIG    N32  173   4.572   3.427   3.246  0.0968  0.0025  0.0457
    1LIG    O25  174   4.460   3.589   3.351  0.1873  0.1107 -0.3310
    1LIG   C118  175   4.630   3.508   3.143  0.4561 -0.4890 -0.2809
    1LIG   C119  176   4.635   3.439   3.014  0.0145  0.4106  0.3321
    1LIG   C120  177   4.776   3.548   3.180 -0.2906 -0.8149  0.3779
    1LIG   C121  178   4.497   3.373   2.992  0.5459  0.2418 -0.0591
    1LIG    O26  179   4.467   3.256   3.014  0.0924  0.1948 -0.7196
    1LIG    O27  180   4.414   3.459   2.918  0.4337  0.4407  0.2840
    1LIG    O28  181   4.224   3.323   3.723 -0.2290  0.1112 -0.1172
    1LIG    N33  182   4.105   2.900   3.492 -0.3473  0.7895 -0.5808
    1LIG   C122  183   3.975   2.731   3.366 -0.4214 -0.2510 -0.3669
    1LIG   C123  184   4.102   2.813   3.387 -0.3922 -0.7353 -0.1471
    1LIG    O29  185   4.199   2.790   3.313 -0.2962 -0.5061 -0.5373
    1LIG   C124  186   4.781   3.663   3.285  0.2228 -0.2806 -0.2038
    1LIG   C125  187   4.921   3.696   3.339  0.2881 -0.5005  0.5467
    1LIG   C126  188   4.912   3.780   3.471 -0.1209  0.9090  0.0749
    1LIG    N34  189   5.045   3.773   3.534  0.5373 -0.2594  0.0385
    1LIG    O30  190   3.966   2.210   3.177 -1.0417 -0.1375 -0.4622
    1LIG      S  191   3.992   2.600   3.233 -0.3931 -0.1526  0.3575
    1LIG    O31  192   3.893   3.547   3.852 -0.0379  0.1029 -0.8671
    1LIG   C127  193   3.863   3.376   3.693  0.2139  0.8616 -0.2306
    1LIG    N35  194   3.768   3.657   3.299 -0.0323  0.5674 -0.1097
    1LIG   C128  195   3.658   3.675   3.226 -0.4217  0.2194 -0.3350
    1LIG   C129  196   3.679   3.695   3.085 -0.0487 -0.3775 -0.0397
    1LIG    O32  197   3.544   3.672   3.269 -0.1630  0.4687 -0.0563
    1LIG   C130  198   3.711   3.839   3.055  0.3870 -0.3888  0.0984
    1LIG   C131  199   3.760   3.861   2.918 -0.4523 -0.1864 -0.7494
    1LIG   C132  200   3.779   4.005   2.879 -0.1288 -0.5977  0.0510
    1LIG   C133  201   3.781   4.021   2.729  0.4973  0.1117 -0.1609
    1LIG   C134  202   3.785   4.172   2.699  0.6713  0.5982  0.1294
    1LIG   C135  203   3.797   4.196   2.552 -0.0891 -0.0893 -0.1887
    1LIG   C136  204   3.777   4.341   2.508  0.5224 -1.6752  0.2002
    1LIG   C137  205   3.826   4.362   2.367  0.0420  0.0285  0.2720
    1LIG   C138  206   3.860   4.506   2.347  0.0371 -0.6791 -0.1773
    1LIG   C139  207   3.880   4.554   2.197  0.4094  0.3267 -0.1789
    1LIG   C140  208   3.884   4.706   2.175 -0.0876  0.0011  0.4579
    1LIG   C141  209   3.935   4.756   2.037 -0.8764  0.2010 -0.1602
    1LIG     H1  210   1.757   4.673   2.826  0.8073  0.2297 -0.7566
    1LIG     H2  211   1.686   4.587   2.699  2.2898 -4.4055 -1.5172
    1LIG     H3  212   1.804   4.687   2.665 -1.3320  0.5688 -0.1732
    1LIG     H4  213   1.954   4.563   2.826  0.7057  1.9000 -1.8104
    1LIG     H5  214   1.928   4.491   2.660 -0.7009  1.3302 -1.5592
    1LIG     H6  215   1.951   4.257   2.733  1.4806  0.6970  0.6379
    1LIG     H7  216   1.744   4.183   2.934 -1.3285  1.0520 -1.2705
    1LIG     H8  217   1.902   4.035   2.713 -0.6927 -0.2634  1.0210
    1LIG     H9  218   1.739   4.085   2.698 -0.9106 -1.2843 -0.6719
    1LIG    H10  219   1.847   3.890   2.914 -0.9992 -1.0736  0.9928
    1LIG    H11  220   1.708   3.795   2.660 -0.0823  0.3707  0.6989
    1LIG    H12  221   1.789   3.700   2.784 -2.4614  0.8810  1.2624
    1LIG    H13  222   1.885   3.797   2.672  0.5650  1.6959 -0.0143
    1LIG    H14  223   1.556   3.976   2.838  0.8288  0.8933 -1.0894
    1LIG    H15  224   1.631   3.973   3.007 -0.6624  0.2808 -0.6939
    1LIG    H16  225   1.597   3.828   2.918 -0.3626 -0.3718 -1.9311
    1LIG    H17  226   1.843   4.201   3.138  0.2109  2.2066 -0.4872
    1LIG    H18  227   2.124   4.182   3.158 -1.0497 -0.5934 -2.1609
    1LIG    H19  228   2.099   4.248   3.375 -0.3101 -0.1500 -0.1509
    1LIG    H20  229   1.919   4.244   3.377 -0.9163  2.3676 -0.7609
    1LIG    H21  230   1.779   4.409   3.253  0.3962  1.2367  0.2771
    1LIG    H22  231   1.773   4.630   3.161 -1.8972 -2.7925 -1.5188
    1LIG    H23  232   1.990   4.750   3.095 -0.1895  0.0149 -0.0599
    1LIG    H24  233   2.209   4.624   3.139 -1.7194  1.0276 -2.7108
    1LIG    H25  234   2.211   4.419   3.261 -1.2070 -0.9291  1.4724
    1LIG    H26  235   2.152   3.937   3.130 -1.8509 -1.1104 -1.2473
    1LIG    H27  236   2.044   3.739   3.331 -2.5317 -2.3114 -2.8754
    1LIG    H28  237   2.222   3.773   3.323 -1.0357 -2.0694  1.6786
    1LIG    H29  238   2.231   3.538   3.281 -0.8036 -1.3599  0.1282
    1LIG    H30  239   2.071   3.412   3.084 -1.6151  1.7768  2.4224
    1LIG    H31  240   2.207   3.523   2.928  0.7878 -1.1405 -1.0485
    1LIG    H32  241   2.402   3.596   3.078 -1.0169 -0.6207  0.7620
    1LIG    H33  242   2.433   3.530   2.915 -2.5344  0.1560 -0.1958
    1LIG    H34  243   2.469   3.424   3.048 -0.0953 -0.8281 -1.4774
    1LIG    H35  244   2.141   3.279   2.915 -0.1500  1.2430  2.4248
    1LIG    H36  245   2.319   3.243   2.964  3.2652  2.7496 -0.1601
    1LIG    H37  246   2.279   3.326   2.807  0.3356 -1.3705  0.2428
    1LIG    H38  247   2.015   3.277   3.263  0.3870  0.5073 -1.3724
    1LIG    H39  248   2.175   3.053   3.307 -0.7769 -1.0416  1.8158
    1LIG    H40  249   1.936   3.184   3.446  1.2295  0.7912  2.6491
    1LIG    H41  250   2.013   3.038   3.511  2.0585  0.8468  0.0201
    1LIG    H42  251   1.885   3.070   3.232 -0.9547 -2.7115 -0.9025
    1LIG    H43  252   1.734   3.106   3.422  0.4922 -0.4003  1.9256
    1LIG    H44  253   1.793   2.953   3.506 -1.9077 -1.2624  0.4293
    1LIG    H45  254   1.703   2.941   3.350 -0.4744  0.1660  0.2901
    1LIG    H46  255   1.958   2.815   3.389  0.4688  0.0070  1.2905
    1LIG    H47  256   2.057   2.890   3.247 -0.1292 -1.3363  1.6159
    1LIG    H48  257   1.888   2.831   3.219  0.4923 -0.4064 -0.6235
    1LIG    H49  258   2.329   3.016   3.459  2.0623  0.6882  0.1317
    1LIG    H50  259   2.324   3.127   3.712  0.2022 -2.2470 -0.1356
    1LIG    H51  260   2.408   3.345   3.630  1.9025  2.0686 -1.9188
    1LIG    H52  261   2.535   3.264   3.535  2.0490 -2.8507  0.5149
    1LIG    H53  262   2.553   3.273   3.711  1.7216  3.3859 -1.6793
    1LIG    H54  263   2.334   2.865   3.657  0.0245  0.2401  1.1308
    1LIG    H55  264   2.597   2.781   3.747 -0.7901 -2.7438  2.7834
    1LIG    H56  265   2.462   2.552   3.771  0.7325 -0.2913 -3.7886
    1LIG    H57  266   2.314   2.659   3.717 -0.7003  0.6595  2.2128
    1LIG    H58  267   2.347   2.798   3.903 -1.7340 -0.8549 -4.5599
    1LIG    H59  268   2.490   2.696   3.968  0.0312  0.2394 -0.7181
    1LIG    H60  269   2.326   2.510   3.981 -0.6653  0.1611 -3.3985
    1LIG    H61  270   2.190   2.618   3.953 -0.0240 -1.1962 -0.3271
    1LIG    H62  271   2.269   2.780   4.138 -2.5058 -0.8332  1.9187
    1LIG    H63  272   2.406   2.666   4.163  0.1018 -3.3395 -0.6242
    1LIG    H64  273   2.256   2.494   4.241  1.5289  0.8725 -0.2541
    1LIG    H65  274   2.122   2.598   4.239 -0.1127 -1.5378  3.3140
    1LIG    H66  275   2.262   2.626   4.335 -0.4856  1.8289 -0.2332
    1LIG    H67  276   2.724   2.635   3.605  0.4641  3.3241 -0.8579
    1LIG    H68  277   2.628   2.539   3.370 -0.3626 -0.1153  0.8522
    1LIG    H69  278   2.863   2.459   3.322  0.0312 -1.9611  0.5340
    1LIG    H70  279   2.884   2.578   3.604  0.4752  0.1889 -0.0344
    1LIG    H71  280   2.973   2.634   3.458 -1.1763  1.0025  1.0616
    1LIG    H72  281   3.008   2.457   3.528 -0.7535 -1.1294 -0.5351
    1LIG    H73  282   2.681   2.331   3.425 -0.3438  3.6009 -1.4208
    1LIG    H74  283   2.693   2.410   3.580  0.5313  0.7098  0.1792
    1LIG    H75  284   2.829   2.293   3.526 -0.8781 -0.1867  3.1309
    1LIG    H76  285   2.559   2.776   3.300 -0.5361  2.0305 -0.8444
    1LIG    H77  286   2.769   2.897   3.135  0.8461  0.5627  3.2692
    1LIG    H78  287   2.545   3.043   3.278 -0.2519 -3.1365  0.8925
    1LIG    H79  288   2.685   3.120   3.186 -0.6911 -0.8517 -1.1516
    1LIG    H80  289   2.702   3.019   3.336 -0.6263 -1.3328  0.6154
    1LIG    H81  290   2.458   2.748   3.095 -1.6400 -1.5992 -2.2082
    1LIG    H82  291   2.392   2.902   2.850  0.9241  0.3086  0.8236
    1LIG    H83  292   2.289   3.022   3.047  1.9151 -1.0172  0.3582
    1LIG    H84  293   2.190   2.879   3.068  1.4237 -2.1653 -0.5219
    1LIG    H85  294   2.190   2.984   2.909 -0.3617  0.1994  1.0619
    1LIG    H86  295   2.468   2.685   2.756  0.1228  0.0298 -1.5029
    1LIG    H87  296   2.214   2.577   2.656 -0.1746  2.0541  0.0631
    1LIG    H88  297   2.270   2.434   2.853 -1.2447 -0.8234 -0.7424
    1LIG    H89  298   2.408   2.365   2.762  0.2619  0.3733 -0.6922
    1LIG    H90  299   2.142   2.233   2.873  0.0411 -2.0698  0.3494
    1LIG    H91  300   1.982   2.086   2.715 -0.1248 -0.6028 -0.4491
    1LIG    H92  301   2.095   2.110   2.489  0.3554 -2.2508  1.2647
    1LIG    H93  302   2.231   2.315   2.475  0.6857 -1.2565  0.0997
    1LIG    H94  303   2.430   2.734   2.500 -0.4220 -0.6261  1.8618
    1LIG    H95  304   2.508   2.538   2.297  1.0074 -0.6696 -0.5053
    1LIG    H96  305   2.545   2.842   2.327 -0.8371  0.8273 -1.6025
    1LIG    H97  306   2.394   2.671   2.135  1.8906  0.9860 -2.3020
    1LIG    H98  307   2.386   2.857   2.149 -1.4679 -1.1042 -0.9376
    1LIG    H99  308   2.311   2.760   2.275 -1.2547  1.7326 -1.2120
    1LIG   H100  309   2.634   2.621   2.112 -1.9183 -1.9202  1.7550
    1LIG   H101  310   2.739   2.752   2.197 -0.4158  3.1604 -0.9997
    1LIG   H102  311   2.628   2.792   2.071  0.9519  0.6066  1.0908
    1LIG   H103  312   2.669   2.422   2.325 -1.3465  1.9543 -0.5759
    1LIG   H104  313   2.925   2.515   2.445 -0.0562 -0.3704  1.9884
    1LIG   H105  314   2.944   2.294   2.557  0.2919 -0.3497 -1.4264
    1LIG   H106  315   2.634   2.285   2.523 -0.9670  0.5751  2.5404
    1LIG   H107  316   2.737   2.206   2.657 -2.0182 -2.0260 -1.0091
    1LIG   H108  317   2.763   2.161   2.490 -1.1205 -0.4915  0.3581
    1LIG   H109  318   2.762   2.496   2.694 -0.4232 -2.0621  0.2228
    1LIG   H110  319   2.933   2.521   2.664 -0.5597 -0.1257  1.3821
    1LIG   H111  320   2.877   2.372   2.757  0.1726  1.9635  2.1652
    1LIG   H112  321   3.087   2.543   2.028  0.0102 -0.6121 -0.2036
    1LIG   H113  322   3.213   2.623   2.111 -1.0250  0.4215 -3.4860
    1LIG   H114  323   3.312   2.412   2.199  2.0076  2.3431 -2.5392
    1LIG   H115  324   3.265   2.361   2.036  1.1708  1.1669 -0.1259
    1LIG   H116  325   3.065   2.272   2.098  1.0445 -1.1036  0.1428
    1LIG   H117  326   2.979   2.597   2.240  1.5994  1.0944 -0.4808
    1LIG   H118  327   3.132   2.576   2.326 -0.7376  0.6887 -0.4248
    1LIG   H119  328   3.359   2.197   2.182  0.2645 -0.7636 -0.2752
    1LIG   H120  329   3.289   1.965   2.350  0.5302 -1.6694 -2.4775
    1LIG   H121  330   3.510   1.887   2.295  0.3937 -0.1828  0.7687
    1LIG   H122  331   3.576   2.053   2.240  1.6440 -1.4970  0.5200
    1LIG   H123  332   3.458   1.962   2.147  1.0122  2.0486 -0.8244
    1LIG   H124  333   3.230   2.156   2.512 -0.2154 -0.2183  1.3581
    1LIG   H125  334   3.456   2.206   2.700 -0.2915 -0.4978  1.4428
    1LIG   H126  335   3.400   2.457   2.710  0.8466  0.1090 -0.3400
    1LIG   H127  336   3.163   2.417   2.592 -0.3233 -1.5818 -2.3577
    1LIG   H128  337   3.264   2.450   2.448  2.4303  4.6792 -0.5257
    1LIG   H129  338   3.256   2.575   2.563 -0.3362 -0.3682 -0.6080
    1LIG   H130  339   3.487   2.537   2.496  1.3490  0.0565 -0.9503
    1LIG   H131  340   3.492   2.369   2.431 -1.7613  0.4054  0.4217
    1LIG   H132  341   3.722   2.444   2.511 -0.3808  1.1293 -0.5099
    1LIG   H133  342   3.648   2.307   2.598 -0.1395 -0.6002 -4.2273
    1LIG   H134  343   3.663   2.480   2.671  1.0840 -1.1225  0.8665
    1LIG   H135  344   3.193   2.035   2.697  3.3139  0.8160 -0.4968
    1LIG   H136  345   2.989   2.187   2.817 -2.5532 -1.9575 -3.3123
    1LIG   H137  346   3.047   1.888   2.780 -0.8529 -0.0418 -2.2336
    1LIG   H138  347   2.930   1.992   2.700 -1.4010 -1.5186  0.2213
    1LIG   H139  348   2.896   1.942   2.870 -1.8131  3.3462 -0.6391
    1LIG   H140  349   2.917   2.205   3.041 -0.9486 -2.0378  0.3724
    1LIG   H141  350   2.985   2.290   3.260  1.6077 -0.5679 -1.0398
    1LIG   H142  351   2.931   2.150   3.422  1.8706  0.1714 -0.3246
    1LIG   H143  352   2.963   1.999   3.343 -2.4336 -0.6263  3.0962
    1LIG   H144  353   2.773   2.038   3.177  1.1875  0.2539  0.7002
    1LIG   H145  354   2.734   2.193   3.252 -1.1716 -0.0157  3.3451
    1LIG   H146  355   2.499   2.044   3.433 -0.3172  1.8056  0.2209
    1LIG   H147  356   3.186   2.381   3.280  3.5640  0.7501 -1.1205
    1LIG   H148  357   3.392   2.200   3.408  1.0869  0.8566  2.0935
    1LIG   H149  358   3.369   2.509   3.400  0.2949  0.3256  0.1129
    1LIG   H150  359   3.511   2.418   3.452 -0.7391  0.0504  0.0907
    1LIG   H151  360   3.202   2.561   3.558  0.0010  0.2827  0.9883
    1LIG   H152  361   3.123   2.500   3.798  1.8629  1.2905  0.2686
    1LIG   H153  362   3.292   2.324   3.874  0.0829  2.1167  1.0733
    1LIG   H154  363   3.476   2.282   3.710 -0.5314 -0.7886 -0.1942
    1LIG   H155  364   3.479   2.114   3.211  0.2547 -0.6139  0.6112
    1LIG   H156  365   3.454   2.230   2.960 -0.3936 -1.0139 -0.5467
    1LIG   H157  366   3.674   2.028   3.058  0.4020  2.4760  2.0897
    1LIG   H158  367   3.656   2.081   2.887 -1.2284 -2.2878 -0.8028
    1LIG   H159  368   3.495   1.987   2.736 -1.6064  0.5605  0.1124
    1LIG   H160  369   3.328   1.811   2.685  2.8625  1.5936 -0.5803
    1LIG   H161  370   3.222   1.683   2.884  0.7285 -0.4972 -1.3375
    1LIG   H162  371   3.310   1.707   3.095 -0.6154  1.2482  1.2649
    1LIG   H163  372   3.482   1.889   3.150  0.4737 -0.3309  0.0876
    1LIG   H164  373   3.734   2.243   3.166  1.6729  0.3536 -0.0848
    1LIG   H165  374   3.853   2.473   3.018 -0.1425  0.4383  0.8108
    1LIG   H166  375   3.854   2.425   3.333 -0.5765  1.3843  0.2798
    1LIG   H167  376   3.753   2.538   3.241 -0.0804  1.2242  1.5849
    1LIG   H168  377   4.058   2.408   2.960 -0.2755 -0.2822 -0.1694
    1LIG   H169  378   4.137   2.261   3.011 -2.1042 -1.5138 -1.7324
    1LIG   H170  379   3.732   3.732   3.492 -1.6638 -1.0504  0.7560
    1LIG   H171  380   3.704   3.556   3.462  0.5957  0.4771  2.9020
    1LIG   H172  381   3.920   3.489   3.462 -1.7111 -0.0425 -1.7732
    1LIG   H173  382   3.907   3.693   3.698 -3.2607  0.7030  0.9702
    1LIG   H174  383   4.031   3.779   3.454  1.5237  0.4278 -0.1870
    1LIG   H175  384   4.028   3.648   3.323 -2.3232 -0.3032  0.4916
    1LIG   H176  385   4.121   3.457   3.390 -3.4001  1.1944  2.0683
    1LIG   H177  386   4.355   3.479   3.580  0.5503 -0.8273  1.0687
    1LIG   H178  387   4.332   3.312   3.316  0.7188  0.8220 -1.5364
    1LIG   H179  388   4.460   3.281   3.447 -0.2978 -1.2813 -1.2776
    1LIG   H180  389   4.246   3.163   3.452  2.3613  1.4988  0.3885
    1LIG   H181  390   4.116   3.055   3.688 -0.2648 -0.3540 -1.1791
    1LIG   H182  391   4.290   3.077   3.714 -0.7919 -0.9277  0.5909
    1LIG   H183  392   4.271   2.865   3.634  0.7182  0.6691  0.3262
    1LIG   H184  393   4.318   2.941   3.492  1.7056  0.3480  1.3161
    1LIG   H185  394   4.600   3.332   3.247  0.2580  0.0337 -1.1343
    1LIG   H186  395   4.581   3.607   3.124 -0.0333 -0.4338  1.2488
    1LIG   H187  396   4.707   3.355   3.022 -0.2017  0.3058  1.2821
    1LIG   H188  397   4.664   3.505   2.930  0.1232 -0.2383 -0.1404
    1LIG   H189  398   4.833   3.579   3.090  1.5965  1.2692  2.1990
    1LIG   H190  399   4.830   3.455   3.208  0.6106 -1.1161 -2.2020
    1LIG   H191  400   4.340   3.398   2.927  1.9845 -1.9778 -2.2940
    1LIG   H192  401   4.024   2.918   3.547  0.9434 -2.2015  2.4666
    1LIG   H193  402   3.887   2.795   3.342 -0.4424 -0.6917 -1.4663
    1LIG   H194  403   3.957   2.688   3.467  0.5400  2.5427  1.0687
    1LIG   H195  404   4.717   3.629   3.369 -0.3284 -2.3296 -1.4095
    1LIG   H196  405   4.732   3.755   3.246 -0.8889 -0.9894 -0.5168
    1LIG   H197  406   4.978   3.744   3.257 -0.6880  0.9159  0.6747
    1LIG   H198  407   4.970   3.602   3.373  1.9749  0.0953 -0.1563
    1LIG   H199  408   4.839   3.742   3.543 -0.0277 -0.9519 -0.7528
    1LIG   H200  409   4.898   3.886   3.446  0.5764  0.7299 -1.1129
    1LIG   H201  410   5.125   3.796   3.472  1.4547  1.7851  1.9129
    1LIG   H202  411   5.070   3.689   3.590  0.2886 -0.5075 -0.2177
    1LIG   H203  412   5.044   3.853   3.600 -0.1031  0.9920 -1.4492
    1LIG   H204  413   3.859   3.306   3.779 -0.4847 -2.3481 -2.7722
    1LIG   H205  414   3.948   3.336   3.634  1.4489  3.2439 -0.1511
    1LIG   H206  415   3.765   3.363   3.641  0.4259  0.9794 -0.6542
    1LIG   H207  416   3.855   3.665   3.250 -0.6659  1.0468 -1.1759
    1LIG   H208  417   3.594   3.650   3.030  0.9262 -0.7827 -1.2422
    1LIG   H209  418   3.766   3.629   3.062 -1.1560 -2.1793  0.8685
    1LIG   H210  419   3.794   3.876   3.119  0.2795  1.1953 -0.6622
    1LIG   H211  420   3.623   3.907   3.065  0.8310  0.3599 -1.0203
    1LIG   H212  421   3.683   3.818   2.849  0.7949 -1.7003 -1.2428
    1LIG   H213  422   3.848   3.795   2.902  0.4340  0.9643 -0.6525
    1LIG   H214  423   3.873   4.043   2.924 -1.4190  2.7057  0.1491
    1LIG   H215  424   3.701   4.067   2.929  0.9245 -1.4192  2.8132
    1LIG   H216  425   3.689   3.974   2.689 -0.3133  0.8941  0.7488
    1LIG   H217  426   3.863   3.960   2.685 -0.7798 -0.8705 -1.1974
    1LIG   H218  427   3.864   4.227   2.753 -0.5104  3.4263 -0.9057
    1LIG   H219  428   3.688   4.215   2.731 -0.2944 -0.4252 -1.3775
    1LIG   H220  429   3.730   4.120   2.506  0.5521 -1.0970  0.5113
    1LIG   H221  430   3.902   4.177   2.523 -0.9599 -1.7603 -2.4687
    1LIG   H222  431   3.841   4.404   2.572 -1.4326 -1.7011  2.2253
    1LIG   H223  432   3.675   4.381   2.526  1.5432  0.5945  1.0931
    1LIG   H224  433   3.753   4.321   2.294 -2.1612  0.7352  2.0028
    1LIG   H225  434   3.917   4.299   2.361 -0.8029 -1.3939  2.0043
    1LIG   H226  435   3.949   4.534   2.407 -1.0592  3.1027 -0.1422
    1LIG   H227  436   3.769   4.562   2.378  0.3512 -0.3711  0.2062
    1LIG   H228  437   3.790   4.525   2.138  0.1272  0.2208  0.3022
    1LIG   H229  438   3.969   4.509   2.150  0.2589 -0.2255  0.0605
    1LIG   H230  439   3.949   4.750   2.254  0.0450  2.4117 -0.9513
    1LIG   H231  440   3.786   4.748   2.203  0.1489  1.9647 -1.5398
    1LIG   H232  441   3.897   4.858   2.012  0.5039  0.8416  0.2636
    1LIG   H233  442   3.882   4.688   1.968 -0.7253 -1.2618  1.1421
    1LIG   H234  443   4.044   4.766   2.020 -0.3302  0.0977  2.8878
    2CLA    CLA  444   1.836   1.167   0.311 -0.3038 -0.2844  0.0359
    3CLA    CLA  445   4.433   5.066   4.975 -0.0715  0.1843  0.5935
    4CLA    CLA  446   5.861   2.947   3.150 -0.1376  0.4175  0.4656
    5CLA    CLA  447   0.152   1.582   4.495  0.1761 -0.1379 -0.2077
    6CLA    CLA  448   5.775   1.840   2.060  0.2487 -0.3023 -0.5621
    7TIP3   OH2  449   2.700   0.555   3.745  0.0559 -0.6649 -0.2868
    7TIP3    H1  450   2.623   0.511   3.781 -1.1305  1.5152 -0.0654
    7TIP3    H2  451   2.665   0.617   3.681  1.7262 -0.4673 -1.0444
    8TIP3   OH2  452   0.973   0.102   2.546 -0.2655  0.0350  0.6086
    8TIP3    H1  453   0.901   0.058   2.501 -0.4174 -1.3894  2.2347
    8TIP3    H2  454   1.020   0.148   2.476 -1.9104 -0.1889 -0.6569
    9TIP3   OH2  455   0.069   0.888   0.467 -0.4268 -0.5678  0.5903
    9TIP3    H1  456  -0.007   0.873   0.411 -0.3424  0.5404  0.1722
    9TIP3    H2  457   0.106   0.801   0.481 -1.0900 -0.9778 -0.1712
   10TIP3   OH2  458   1.790   5.975   2.291  0.0686  0.0180 -0.2125
   10TIP3    H1  459   1.865   5.918   2.276 -0.1840 -0.6234  0.9102
   10TIP3    H2  460   1.824   6.046   2.347  0.0353  0.1665 -0.3804
   11TIP3   OH2  461   5.625   2.225   5.012 -0.3270 -0.0437  0.4185
   11TIP3    H1  462   5.557   2.160   4.996 -0.0252 -0.6085  1.3463
   11TIP3    H2  463   5.705   2.183   4.979  0.0379 -0.5817  1.9392
   12TIP3   OH2  464   5.433   1.199   5.304  0.1058  0.3076 -0.1119
   12TIP3    H1  465   5.433   1.156   5.218 -0.4253  1.1569 -0.5420
   12TIP3    H2  466   5.342   1.222   5.319  0.3692  1.1964  0.1560
   13TIP3   OH2  467   5.780   0.213   0.453 -0.2608 -0.1269 -0.0510
   13TIP3    H1  468   5.870   0.233   0.480 -0.3389  1.2793 -0.8110
   13TIP3    H2  469   5.756   0.284   0.393 -0.6428 -2.3316 -2.6186
   14TIP3   OH2  470   3.388   2.101   5.580 -0.3689  0.5142 -0.3727
   14TIP3    H1  471   3.391   2.195   5.562  1.3289  0.0046 -3.1241
   14TIP3    H2  472   3.374   2.061   5.494 -2.4144 -1.7144  0.9349
   15TIP3   OH2  473   0.157   0.726   0.120  0.6517  0.3587  0.4779
   15TIP3    H1  474   0.240   0.774   0.120  0.8119  0.0862 -0.9863
   15TIP3    H2  475   0.104   0.769   0.052  0.2523 -0.5968  0.1761
   16TIP3   OH2  476   1.562   5.694   0.758 -0.2953  0.3527 -0.0315
   16TIP3    H1  477   1.602   5.708   0.843  1.6411  0.0174 -0.8715
   16TIP3    H2  478   1.512   5.774   0.742 -0.2248  0.6436  1.1673
   17TIP3   OH2  479   1.352   2.453   4.457  0.0947 -0.7507  0.0511
   17TIP3    H1  480   1.318   2.365   4.476  1.6370 -1.6748 -1.2935
   17TIP3    H2  481   1.417   2.470   4.525 -0.0920 -0.7170  0.2202
   18TIP3   OH2  482   0.383   1.480   0.878 -0.2847  0.6499  0.0140
   18TIP3    H1  483   0.338   1.533   0.813 -1.0237  1.3603  1.0859
   18TIP3    H2  484   0.325   1.481   0.954 -0.1772 -1.4500  0.1629
   19TIP3   OH2  485   2.243   0.842   6.094 -0.1565  0.1138  0.1573
   19TIP3    H1  486   2.186   0.768   6.073  2.1990 -1.5452 -0.6834
   19TIP3    H2  487   2.255   0.888   6.011  1.3928 -0.7956 -0.1482
   20TIP3   OH2  488   1.050   4.665   0.798  0.4574  0.5275 -0.1079
   20TIP3    H1  489   1.134   4.711   0.799  1.2599 -0.9199  1.8078
   20TIP3    H2  490   1.070   4.580   0.760 -0.3159  0.4689 -0.3902
   21TIP3   OH2  491   4.765   0.178   5.850  0.3206 -0.4607  1.0470
   21TIP3    H1  492   4.821   0.252   5.827  0.1275 -0.6790 -0.1238
   21TIP3    H2  493   4.760   0.181   5.946  2.0098 -0.1986  1.1459
   22TIP3   OH2  494   0.333   5.070   0.582  0.2825  0.7189  0.5962
   22TIP3    H1  495   0.330   5.164   0.601 -0.1024  0.9542 -0.5438
   22TIP3    H2  496   0.370   5.065   0.493  1.3281 -0.2704  1.0738
   23TIP3   OH2  497   0.196   1.021   1.126 -0.2012  0.5337 -0.4715
   23TIP3    H1  498   0.178   0.961   1.198  1.0456  0.3327 -0.3275
   23TIP3    H2  499   0.129   1.089   1.134 -0.2413  0.3556  0.6978
   24TIP3   OH2  500   0.132   2.399   6.040 -0.2579  0.2280 -0.4540
   24TIP3    H1  501   0.041   2.370   6.032 -0.2240  0.4495 -1.7549
   24TIP3    H2  502   0.128   2.494   6.029  0.3502  0.0261 -2.6912
   25TIP3   OH2  503   1.137   2.246   3.014  0.4918  0.6730 -0.0481
   25TIP3    H1  504   1.190   2.167   3.026 -0.1438  0.2261 -0.2108
   25TIP3    H2  505   1.160   2.301   3.090 -1.8614 -1.2428  2.1467
   26TIP3   OH2  506   5.820   2.477   1.221  0.1294 -0.2646 -0.1174
   26TIP3    H1  507   5.896   2.525   1.255  0.0230 -0.1918  0.0216
   26TIP3    H2  508   5.826   2.390   1.261 -0.1756 -0.0746  0.3537
   27TIP3   OH2  509   5.644   5.198   1.300 -0.6820  0.0793 -0.0876
   27TIP3    H1  510   5.687   5.123   1.259 -0.9005  0.4807 -1.0802
   27TIP3    H2  511   5.552   5.190   1.276 -0.8798  0.1273  0.6384
   28TIP3   OH2  512   1.539   4.008   1.674 -0.2457  0.2694  1.1445
   28TIP3    H1  513   1.577   4.095   1.664 -0.6650  0.3144 -0.0351
   28TIP3    H2  514   1.453   4.023   1.714 -0.9169  0.5062 -0.3806
   29TIP3   OH2  515   6.065   0.293   0.367 -0.2238  0.4475 -0.3576
   29TIP3    H1  516   6.051   0.384   0.340  1.7399  1.1265  0.7883
   29TIP3    H2  517   6.160   0.282   0.363 -0.2758 -0.9040  1.5968
   30TIP3   OH2  518   1.643   0.995   0.508 -0.1954  0.3100  0.0018
   30TIP3    H1  519   1.562   1.039   0.534  0.1895  0.6251  0.6781
   30TIP3    H2  520   1.678   1.050   0.437 -1.6813 -1.0177 -1.8163
   31TIP3   OH2  521   2.266   0.287   0.586  0.2573 -0.6623  0.0982
   31TIP3    H1  522   2.310   0.203   0.577 -0.1097 -0.8620  0.1636
   31TIP3    H2  523   2.280   0.331   0.502  1.1646 -0.4396  0.3621
   32TIP3   OH2  524   0.136   2.471   5.252  0.2702 -0.3088  0.0538
   32TIP3    H1  525   0.214   2.446   5.302 -0.5700  0.3743  1.7283
   32TIP3    H2  526   0.151   2.434   5.164  2.5252 -0.0740  0.3192
   33TIP3   OH2  527   1.148   0.637   0.924 -0.2711 -0.1390  0.0660
   33TIP3    H1  528   1.238   0.615   0.945 -0.3520 -0.7800 -0.2664
   33TIP3    H2  529   1.095   0.587   0.987 -0.4319 -0.4292 -0.3032
   34TIP3   OH2  530   1.743   2.935   4.828  0.3185  0.2553  0.1157
   34TIP3    H1  531   1.836   2.957   4.821 -0.0347  1.2918 -1.9187
   34TIP3    H2  532   1.717   2.965   4.915  1.9619 -0.3714  0.8268
   35TIP3   OH2  533   2.316   5.963   2.544 -0.3097 -0.0678  0.1611
   35TIP3    H1  534   2.251   5.919   2.598 -1.1469 -1.4119 -1.9018
   35TIP3    H2  535   2.367   6.016   2.606 -1.9493 -0.7009  2.0887
   36TIP3   OH2  536   0.318   0.980   3.790 -0.1457  0.7406 -0.7140
   36TIP3    H1  537   0.362   1.036   3.726  3.3195 -0.7095  0.2587
   36TIP3    H2  538   0.322   1.030   3.872  4.0697 -1.2248  0.4454
   37TIP3   OH2  539   5.824   0.808   5.039  0.1013 -0.3103  0.0810
   37TIP3    H1  540   5.788   0.784   4.953  2.0879 -2.4406 -0.2054
   37TIP3    H2  541   5.801   0.900   5.050 -3.0405 -0.8577 -1.2659
   38TIP3   OH2  542   2.557   5.021   3.132  0.3286 -0.2642  0.7928
   38TIP3    H1  543   2.572   4.998   3.041 -1.9037  0.1989  0.2835
   38TIP3    H2  544   2.611   5.099   3.146 -1.3655  1.2768 -0.9387
   39TIP3   OH2  545   2.467   2.157   4.604 -0.4655  0.0214  0.4569
   39TIP3    H1  546   2.556   2.163   4.637 -0.6923  0.7569  0.9782
   39TIP3    H2  547   2.465   2.078   4.551  0.6963  0.4258 -0.1897
   40TIP3   OH2  548   5.812   2.394   0.953  0.0168 -0.5511  0.6626
   40TIP3    H1  549   5.879   2.334   0.986  1.8741  1.2312  0.2255
   40TIP3    H2  550   5.794   2.453   1.026 -1.3694 -1.2193  0.8919
   41TIP3   OH2  551   3.969   0.244   5.856  0.2816 -0.3838 -0.0888
   41TIP3    H1  552   3.988   0.213   5.768  0.6886 -0.9773  0.2062
   41TIP3    H2  553   4.040   0.209   5.910 -0.7443 -1.2720  0.7257
   42TIP3   OH2  554   1.900   1.097   0.776  0.0979  0.9706 -0.4530
   42TIP3    H1  555   1.894   1.180   0.730 -2.8212  1.1153  0.0415
   42TIP3    H2  556   1.811   1.083   0.810  1.0284 -1.3979  1.1031
   43TIP3   OH2  557   1.296   5.098   5.321 -0.1009  0.4729 -0.5705
   43TIP3    H1  558   1.260   5.027   5.375  0.6513  0.3545 -0.2123
   43TIP3    H2  559   1.322   5.055   5.240 -1.7308  0.7437 -1.2647
   44TIP3   OH2  560   3.490   0.992   5.811 -0.4480  0.6276 -0.4577
   44TIP3    H1  561   3.555   0.922   5.812 -0.6605  0.3957 -1.7321
   44TIP3    H2  562   3.483   1.020   5.902 -0.7182 -1.3590  0.1651
   45TIP3   OH2  563   0.278   2.041   2.399  0.0085 -0.0392  0.4036
   45TIP3    H1  564   0.300   1.978   2.468  0.3921 -0.3467 -0.0000
   45TIP3    H2  565   0.354   2.043   2.342  0.1314  1.0493  0.5933
   46TIP3   OH2  566   5.725   0.725   4.814  0.3493  0.2698  0.1490
   46TIP3    H1  567   5.765   0.716   4.727 -0.6601  0.3449 -0.3419
   46TIP3    H2  568   5.664   0.652   4.819  0.1810  0.4481  0.6726
   47TIP3   OH2  569   3.612   0.054   0.202 -0.4038  0.1157 -0.5207
   47TIP3    H1  570   3.673   0.041   0.130 -0.8974  0.4068 -0.9996
   47TIP3    H2  571   3.559   0.129   0.174 -2.1763 -1.2510 -0.9367
   48TIP3   OH2  572   5.977   1.401   1.661  0.2573  0.1103  0.1832
   48TIP3    H1  573   5.928   1.437   1.735 -1.9098 -0.8348 -0.7601
   48TIP3    H2  574   5.920   1.413   1.586  1.6180 -0.7197 -1.0094
   49TIP3   OH2  575   0.793   2.766   2.426  0.6341 -0.5926  0.1039
   49TIP3    H1  576   0.855   2.738   2.493 -0.6898 -2.4815  0.5698
   49TIP3    H2  577   0.756   2.685   2.391 -0.1060  0.4372 -1.5719
   50TIP3   OH2  578   1.832   0.052   0.507  0.8254 -0.3416 -0.0135
   50TIP3    H1  579   1.747   0.069   0.466  1.2969  0.2740 -0.7544
   50TIP3    H2  580   1.896   0.090   0.446  1.5848 -0.1132  0.9181
   51TIP3   OH2  581   5.117   1.495   5.864  0.2991 -0.0466  0.7622
   51TIP3    H1  582   5.122   1.406   5.829  0.5505  0.6789 -1.1640
   51TIP3    H2  583   5.106   1.484   5.958  1.1484 -2.0946  0.6456
   52TIP3   OH2  584   2.330   1.212   0.997  0.2981 -0.3829  0.5412
   52TIP3    H1  585   2.278   1.138   0.966 -0.5588  0.0232  0.9860
   52TIP3    H2  586   2.313   1.216   1.091  0.2647  0.4243  0.5109
   53TIP3   OH2  587   1.214   1.525   2.133  0.4167  0.1047  0.0545
   53TIP3    H1  588   1.248   1.496   2.049 -0.8208 -0.9281 -0.0956
   53TIP3    H2  589   1.141   1.583   2.111  1.5010  1.6406  0.3905
   54TIP3   OH2  590   5.310   2.361   0.364 -0.5493 -0.4931 -0.3491
   54TIP3    H1  591   5.379   2.375   0.430 -0.7457  0.4514 -0.3352
   54TIP3    H2  592   5.247   2.431   0.381 -1.5317 -1.3548 -0.3532
   55TIP3   OH2  593   0.665   2.362   1.301 -0.2685 -0.5155  0.6722
   55TIP3    H1  594   0.667   2.447   1.257  2.1819 -1.2976 -0.7998
   55TIP3    H2  595   0.581   2.323   1.275 -0.9937  1.0633  0.6299
   56TIP3   OH2  596   0.957   2.208   2.589 -0.2257  0.5960  0.5125
   56TIP3    H1  597   1.012   2.193   2.667 -0.7857 -0.2840  0.7538
   56TIP3    H2  598   0.997   2.283   2.546  0.6071  0.5642  1.1954
   57TIP3   OH2  599   1.528   2.759   5.073 -0.1044 -0.1529  0.2314
   57TIP3    H1  600   1.500   2.746   5.164  0.9201 -0.0923  0.5540
   57TIP3    H2  601   1.503   2.849   5.053 -0.3239 -0.1625  0.4566
   58TIP3   OH2  602   5.398   4.084   1.380  0.2546  0.2227  0.0957
   58TIP3    H1  603   5.465   4.017   1.365  0.2139  0.3770 -0.8290
   58TIP3    H2  604   5.428   4.159   1.328 -0.2765  0.5319  0.2382
   59TIP3   OH2  605   1.603   3.756   0.057  0.1160 -0.4020 -0.0009
   59TIP3    H1  606   1.675   3.697   0.079 -0.5028 -1.8285 -1.6154
   59TIP3    H2  607   1.552   3.707  -0.008 -1.2562  1.3304 -0.2610
   60TIP3   OH2  608   1.583   2.169   1.028 -0.0873  0.0490  0.0231
   60TIP3    H1  609   1.494   2.174   1.064 -0.6523  1.8456 -1.5291
   60TIP3    H2  610   1.636   2.222   1.087 -0.2539 -0.1560  0.3571
   61TIP3   OH2  611   1.906   1.426   0.162  0.4202 -0.2099 -0.1122
   61TIP3    H1  612   1.899   1.337   0.196  0.8109  0.4272  1.6627
   61TIP3    H2  613   1.817   1.461   0.165  0.0147 -0.9845 -2.1205
   62TIP3   OH2  614   4.354   2.123   1.981 -0.7501 -0.4911  0.3328
   62TIP3    H1  615   4.296   2.169   2.041 -0.4952  0.2225  0.0304
   62TIP3    H2  616   4.345   2.170   1.898  0.3173 -0.3397  0.3035
   63TIP3   OH2  617   3.156   0.018   1.859  0.4329  0.5284 -0.2134
   63TIP3    H1  618   3.062   0.032   1.870  0.3158 -0.3082 -0.1465
   63TIP3    H2  619   3.174   0.044   1.769  0.1663  0.8115 -0.1872
   64TIP3   OH2  620   3.172   5.521   2.789  0.1259  0.2084 -0.1586
   64TIP3    H1  621   3.109   5.495   2.722  0.8635  0.0894 -0.8058
   64TIP3    H2  622   3.228   5.444   2.800  0.0308  0.2375  0.5696
   65TIP3   OH2  623   1.705   0.269   1.658 -0.0335  0.3310 -0.1398
   65TIP3    H1  624   1.732   0.356   1.628 -1.4583  0.5852 -0.7238
   65TIP3    H2  625   1.725   0.211   1.585 -2.1667  0.7186 -1.0625
   66TIP3   OH2  626   3.763   2.019   1.633 -0.2629 -0.3530  0.4110
   66TIP3    H1  627   3.668   2.015   1.634 -0.2147 -1.6203  0.7271
   66TIP3    H2  628   3.790   1.950   1.572  0.4754 -0.8692  1.2957
   67TIP3   OH2  629   0.329   5.385   0.589 -0.1537  0.7935 -0.3325
   67TIP3    H1  630   0.323   5.413   0.681 -0.8935  0.9061 -0.4161
   67TIP3    H2  631   0.416   5.414   0.562  1.0016 -1.2665  1.0079
   68TIP3   OH2  632   5.459   0.612   1.044  0.5820 -0.1829  0.6388
   68TIP3    H1  633   5.407   0.534   1.025  0.5136 -0.0557  0.2984
   68TIP3    H2  634   5.465   0.614   1.139 -1.2945  0.6090  0.7763
   69TIP3   OH2  635   0.747   5.614   0.444 -0.3948 -0.6719 -0.1567
   69TIP3    H1  636   0.817   5.551   0.460 -1.5126 -1.4436  1.9324
   69TIP3    H2  637   0.790   5.699   0.444  0.9084 -1.3078 -1.4947
   70TIP3   OH2  638   5.286   5.175   2.325  0.2078 -0.6774 -0.2862
   70TIP3    H1  639   5.317   5.115   2.393 -2.5394 -1.3124  0.5115
   70TIP3    H2  640   5.359   5.183   2.264  1.7551 -2.3113  1.2873
   71TIP3   OH2  641   4.385   2.878   0.971  0.1235  0.2357  0.1586
   71TIP3    H1  642   4.300   2.861   0.931  0.1119  2.0136 -0.6134
   71TIP3    H2  643   4.399   2.972   0.959  1.8477  0.1010  0.9658
   72TIP3   OH2  644   5.312   1.366   1.325  0.2957  0.8033  0.1283
   72TIP3    H1  645   5.323   1.422   1.248  0.8763  0.1951 -0.2443
   72TIP3    H2  646   5.399   1.328   1.339 -0.1201 -0.1035  0.2941
   73TIP3   OH2  647   0.780   2.307   5.833 -0.1594  0.0149  0.1201
   73TIP3    H1  648   0.779   2.268   5.920 -1.5950  4.2307  2.1242
   73TIP3    H2  649   0.863   2.356   5.830  0.6032 -1.3334 -1.5072
   74TIP3   OH2  650   5.418   0.602   5.957 -0.1727  0.5963  0.3815
   74TIP3    H1  651   5.480   0.532   5.935  0.4655  0.4319  2.6022
   74TIP3    H2  652   5.416   0.658   5.879  2.1343  0.1506 -0.0313
   75TIP3   OH2  653   0.357   5.695   0.814  0.6097  0.6326 -0.2468
   75TIP3    H1  654   0.417   5.740   0.754  1.1563  1.7314  1.0954
   75TIP3    H2  655   0.287   5.758   0.830 -0.4435 -0.3017 -1.0745
   76TIP3   OH2  656   4.432   4.596   4.706  0.4729  0.3475 -0.1566
   76TIP3    H1  657   4.363   4.540   4.672  0.2141  0.5529  0.0283
   76TIP3    H2  658   4.513   4.549   4.687  0.2879  0.1568 -0.4649
   77TIP3   OH2  659   0.500   0.780   3.417  0.3236 -0.6687 -0.3722
   77TIP3    H1  660   0.530   0.709   3.474 -1.5921  0.3891  2.0258
   77TIP3    H2  661   0.559   0.853   3.435 -0.1662 -0.3925  0.1115
   78TIP3   OH2  662   5.162   0.551   4.643  0.1494 -0.0684  0.1144
   78TIP3    H1  663   5.095   0.611   4.611 -1.0859 -1.1116  0.6805
   78TIP3    H2  664   5.244   0.600   4.635 -1.1143  2.7292  3.1150
   79TIP3   OH2  665   4.375   2.457   5.482 -0.6144 -0.2696 -0.1308
   79TIP3    H1  666   4.468   2.460   5.459 -0.7651 -0.2682 -0.7587
   79TIP3    H2  667   4.338   2.535   5.442 -1.2099 -1.1716 -1.3675
   80TIP3   OH2  668   5.564   0.659   5.156  0.4431  0.0663  0.3978
   80TIP3    H1  669   5.572   0.628   5.066  0.8039  1.1005  0.0758
   80TIP3    H2  670   5.652   0.652   5.192 -0.0866 -2.4031  1.3655
   81TIP3   OH2  671   5.887   5.806   0.872 -0.2883 -0.0023 -0.6442
   81TIP3    H1  672   5.854   5.851   0.950  2.5387 -0.1486  0.7345
   81TIP3    H2  673   5.834   5.839   0.800 -0.8579  2.5706  0.8900
   82TIP3   OH2  674   3.339   5.969   4.925  0.1874 -0.3835  0.3922
   82TIP3    H1  675   3.425   5.973   4.967  0.2052 -0.2031  0.3409
   82TIP3    H2  676   3.308   5.880   4.940  0.8068 -0.7441 -0.4501
   83TIP3   OH2  677   2.425   2.681   4.458  0.2200  0.1195  0.4063
   83TIP3    H1  678   2.449   2.728   4.538 -2.0725 -0.7952  1.6564
   83TIP3    H2  679   2.459   2.593   4.471  0.0489  0.0326  0.2651
   84TIP3   OH2  680   5.118   2.537   0.513  0.1546  0.3850  0.7093
   84TIP3    H1  681   5.143   2.527   0.605  2.5739 -0.1099  0.0156
   84TIP3    H2  682   5.080   2.625   0.508  0.0910  0.4496  2.1425
   85TIP3   OH2  683   4.576   5.572   5.485  0.2702  0.3660  0.4334
   85TIP3    H1  684   4.539   5.551   5.399  3.6004 -2.3169 -0.4788
   85TIP3    H2  685   4.650   5.629   5.466  2.4513 -2.1042  1.2088
   86TIP3   OH2  686   5.135   0.522   0.471  0.0911 -0.4154  0.4341
   86TIP3    H1  687   5.194   0.459   0.433  0.4527  0.2372 -0.0875
   86TIP3    H2  688   5.162   0.529   0.563  0.1532 -0.8867  0.4490
   87TIP3   OH2  689   0.073   0.030   5.867  0.0701  0.0397 -0.2531
   87TIP3    H1  690   0.158   0.005   5.831 -0.9291 -2.0560 -1.2120
   87TIP3    H2  691   0.082   0.014   5.961  0.8929  0.3065 -0.2803
   88TIP3   OH2  692   2.427   1.413   0.391  0.0842  0.0816 -0.3134
   88TIP3    H1  693   2.332   1.411   0.405  0.1250  1.2491  0.1820
   88TIP3    H2  694   2.449   1.324   0.363 -0.8676 -0.7249  1.4331
   89TIP3   OH2  695   3.954   3.110   4.033  0.6048 -0.4868  0.4344
   89TIP3    H1  696   4.021   3.139   3.971 -0.8104 -2.5166 -2.1541
   89TIP3    H2  697   3.940   3.185   4.091  2.1763  1.3671 -1.5175
   90TIP3   OH2  698   1.280   1.634   4.307  0.4131 -0.4803 -0.1578
   90TIP3    H1  699   1.313   1.617   4.395 -2.7729  1.5112  1.5045
   90TIP3    H2  700   1.251   1.548   4.276  1.8709 -1.2592  0.5654
   91TIP3   OH2  701   5.063   1.142   5.053 -0.3031  0.8248  0.1409
   91TIP3    H1  702   5.017   1.058   5.050 -2.5405  2.0731 -1.3635
   91TIP3    H2  703   5.113   1.146   4.971 -0.7188  1.2593 -0.0917
   92TIP3   OH2  704   2.032   2.239   0.457 -0.4095 -0.3276  0.2460
   92TIP3    H1  705   2.056   2.205   0.543 -2.2782 -0.9210  0.5560
   92TIP3    H2  706   1.952   2.290   0.473 -1.6051 -1.6564 -1.3464
   93TIP3   OH2  707   5.927   1.850   0.317 -0.8274  0.3022  0.0201
   93TIP3    H1  708   5.862   1.899   0.368  0.0129  1.6319 -0.1679
   93TIP3    H2  709   5.876   1.784   0.271 -1.8342  0.2235  1.2073
   94TIP3   OH2  710   1.006   1.772   0.632  0.4825  0.3483 -0.0756
   94TIP3    H1  711   0.953   1.768   0.553  1.2159  0.4288 -0.5813
   94TIP3    H2  712   1.027   1.864   0.643  0.6120  0.3042  0.0572
   95TIP3   OH2  713   0.375   1.290   0.548 -0.6106  0.3043  0.5629
   95TIP3    H1  714   0.340   1.341   0.621 -1.0530  0.8698 -0.0413
   95TIP3    H2  715   0.369   1.349   0.472 -2.0268 -0.9600 -0.3401
   96TIP3   OH2  716   5.869   1.957   3.107 -0.4804 -0.0466 -0.2877
   96TIP3    H1  717   5.921   1.987   3.033  0.1917  0.4287  0.3737
   96TIP3    H2  718   5.925   1.971   3.183 -1.7509  0.9526  0.4850
   97TIP3   OH2  719   1.562   1.001   2.090 -0.5113  0.1863  0.3530
   97TIP3    H1  720   1.610   1.083   2.102 -1.5209  0.4156  3.2482
   97TIP3    H2  721   1.476   1.018   2.128 -0.1316 -2.7579  2.7332
   98TIP3   OH2  722   4.686   2.758   1.247  0.0727  0.5444  0.0392
   98TIP3    H1  723   4.733   2.750   1.331 -1.0133  1.0446  0.7115
   98TIP3    H2  724   4.724   2.836   1.206  0.5546  0.3438  0.1002
   99TIP3   OH2  725   3.897   5.379   2.138 -0.1622 -0.1884  0.4784
   99TIP3    H1  726   3.845   5.457   2.119  0.1199 -0.4072 -1.1846
   99TIP3    H2  727   3.977   5.413   2.177 -0.4229  0.2871  0.6134
  100TIP3   OH2  728   1.955   1.983   0.924  0.3954  0.4102 -0.0095
  100TIP3    H1  729   2.029   1.939   0.882 -1.1842 -1.1456 -1.2512
  100TIP3    H2  730   1.914   2.032   0.854  0.9339  2.2458  0.9408
  101TIP3   OH2  731   1.644   6.088   5.178  0.0021 -0.4915 -0.3650
  101TIP3    H1  732   1.698   6.167   5.175  0.8314 -1.0620 -0.6722
  101TIP3    H2  733   1.602   6.084   5.092  1.1598 -1.2108 -0.9007
  102TIP3   OH2  734   2.770   2.678   0.275 -0.7534  0.3281 -0.1605
  102TIP3    H1  735   2.781   2.746   0.208  0.1804 -0.2906 -0.6425
  102TIP3    H2  736   2.859   2.659   0.305 -1.1114  0.1168  0.7854
  103TIP3   OH2  737   4.340   1.378   0.386 -0.1759  0.0010  0.2163
  103TIP3    H1  738   4.395   1.454   0.364  0.5097 -0.5924 -0.1451
  103TIP3    H2  739   4.326   1.334   0.302  0.0529 -0.6914  0.5439
  104TIP3   OH2  740   1.648   0.715   5.935  0.3680 -0.2681  0.1770
  104TIP3    H1  741   1.570   0.743   5.982 -0.8052  0.1449 -1.9700
  104TIP3    H2  742   1.633   0.623   5.916 -0.7492  0.4272 -2.4307
  105TIP3   OH2  743   5.768   2.872   1.018 -0.4458  0.0001 -0.6131
  105TIP3    H1  744   5.713   2.865   0.939  0.4559 -0.8489 -1.1656
  105TIP3    H2  745   5.777   2.782   1.049 -1.3186  0.3924  0.8398
  106TIP3   OH2  746   0.266   1.675   5.355  1.3398 -0.1791  0.5680
  106TIP3    H1  747   0.178   1.669   5.391  1.0226 -0.1854 -0.2049
  106TIP3    H2  748   0.257   1.647   5.264  1.7173  1.9568 -0.1641
  107TIP3   OH2  749   2.789   4.538   0.124 -0.1133 -0.4543  0.1368
  107TIP3    H1  750   2.849   4.474   0.086 -1.5760 -2.1273  0.6166
  107TIP3    H2  751   2.758   4.588   0.049  1.4749  0.1170 -0.1733
  108TIP3   OH2  752   1.164   2.530   0.670  0.1853 -0.2675  0.4967
  108TIP3    H1  753   1.208   2.548   0.587 -2.2274 -0.6905 -0.9238
  108TIP3    H2  754   1.126   2.615   0.696  2.5711  0.3173  2.1985
  109TIP3   OH2  755   2.923   1.178   1.651 -0.4801 -0.0846 -0.5748
  109TIP3    H1  756   2.872   1.118   1.706 -0.1294  0.3423  0.2370
  109TIP3    H2  757   3.014   1.156   1.671 -0.3426  1.2086  0.3058
  110TIP3   OH2  758   0.270   3.293   4.649  0.8224  0.0554  0.3178
  110TIP3    H1  759   0.348   3.330   4.689  1.7928 -1.6183  0.0405
  110TIP3    H2  760   0.301   3.213   4.606 -0.5452  0.7603 -2.0690
  111TIP3   OH2  761   6.052   4.847   1.176  0.8567  0.0682  0.4871
  111TIP3    H1  762   6.061   4.796   1.095 -0.4709  0.3271  0.1655
  111TIP3    H2  763   6.141   4.854   1.209  1.4855  0.3399 -1.1868
  112TIP3   OH2  764   1.747   1.868   1.329  0.1692  0.2038  1.1302
  112TIP3    H1  765   1.714   1.790   1.373 -1.9563  0.3880 -0.0804
  112TIP3    H2  766   1.784   1.922   1.398  0.7000 -1.3918  2.1144
  113TIP3   OH2  767   5.789   1.467   1.462 -0.3592 -0.4282  0.3335
  113TIP3    H1  768   5.715   1.527   1.457  1.6297  1.9475 -2.2878
  113TIP3    H2  769   5.805   1.442   1.371  2.2682 -0.6024  0.8193
  114TIP3   OH2  770   1.664   1.578   5.599 -0.1602  0.0214 -0.8196
  114TIP3    H1  771   1.631   1.634   5.670 -1.3624 -1.5367 -0.1191
  114TIP3    H2  772   1.752   1.553   5.626 -0.4327 -0.1742 -0.1103
  115TIP3   OH2  773   0.927   1.023   5.419 -0.4766 -0.6141 -0.2029
  115TIP3    H1  774   0.834   1.014   5.400 -0.7507  0.5733  0.5353
  115TIP3    H2  775   0.935   1.001   5.512 -0.5430  2.3674  0.5748
  116TIP3   OH2  776   5.794   2.620   4.792  0.2579  0.6326 -0.2484
  116TIP3    H1  777   5.711   2.660   4.767  0.4715 -0.1154 -2.2264
  116TIP3    H2  778   5.860   2.677   4.753  0.6590  0.6507  0.4519
  117TIP3   OH2  779   2.045   0.272   1.973 -0.5046  0.4983 -0.2043
  117TIP3    H1  780   2.019   0.361   1.948  0.1277  0.8706  0.4370
  117TIP3    H2  781   2.009   0.216   1.904  0.2905  1.3955 -1.3508
  118TIP3   OH2  782   5.468   1.288   4.795 -0.3602 -0.2534 -0.2579
  118TIP3    H1  783   5.509   1.339   4.724 -1.3453 -1.2591 -1.5815
  118TIP3    H2  784   5.522   1.210   4.802  0.2870  0.2728  0.7697
  119TIP3   OH2  785   2.100   3.434   5.482 -0.0120 -0.5712 -1.3091
  119TIP3    H1  786   2.081   3.340   5.476 -1.3631 -0.5395  1.4612
  119TIP3    H2  787   2.032   3.475   5.429 -0.5061 -1.0931 -1.0981
  120TIP3   OH2  788   4.295   4.864   5.150 -0.5277 -0.1160  0.5698
  120TIP3    H1  789   4.311   4.911   5.232  1.1077 -1.6924  1.1906
  120TIP3    H2  790   4.337   4.917   5.083  0.9990 -0.4785  1.2179
  121TIP3   OH2  791   0.999   0.596   5.347  0.5691  0.0055 -0.0168
  121TIP3    H1  792   0.956   0.640   5.273  0.1932 -0.4137 -0.0461
  121TIP3    H2  793   0.937   0.530   5.375  2.2496 -2.4035 -1.7563
  122TIP3   OH2  794   0.057   0.723   5.009  0.1880  0.6447 -0.0395
  122TIP3    H1  795   0.081   0.710   4.917  0.8282 -0.5278  0.2787
  122TIP3    H2  796  -0.038   0.736   5.007  0.3672  1.9362 -0.9869
  123TIP3   OH2  797   1.741   1.373   1.912  0.0972  0.2521  0.0822
  123TIP3    H1  798   1.765   1.322   1.835  2.0024  0.3710  0.5814
  123TIP3    H2  799   1.714   1.458   1.877 -0.0511 -0.0341 -0.5122
  124TIP3   OH2  800   1.071   1.813   4.978 -1.1708 -0.1445 -0.8924
  124TIP3    H1  801   0.980   1.809   4.949 -1.0669  0.7420 -1.3549
  124TIP3    H2  802   1.067   1.799   5.072 -1.8753  0.8618 -0.7711
  125TIP3   OH2  803   0.667   3.104   0.298  0.6148 -0.3454  0.0721
  125TIP3    H1  804   0.620   3.067   0.372  0.5175  1.2356  0.8395
  125TIP3    H2  805   0.601   3.154   0.251  1.1175  0.3728  0.1159
  126TIP3   OH2  806   1.939   0.063   0.756  0.0700  0.0646 -0.2368
  126TIP3    H1  807   1.921   0.058   0.662 -0.5907  1.3476 -0.1885
  126TIP3    H2  808   1.974   0.151   0.769  0.1381 -0.0994  0.7301
  127TIP3   OH2  809   4.643   1.434   5.502  0.0340  0.2872 -0.2994
  127TIP3    H1  810   4.556   1.424   5.540  1.1338 -1.8902  1.7810
  127TIP3    H2  811   4.694   1.479   5.570  1.0006 -0.0600 -0.7848
  128TIP3   OH2  812   4.340   0.288   2.380 -0.1585 -0.0268 -0.2121
  128TIP3    H1  813   4.361   0.290   2.473 -0.6863 -0.0273 -0.0931
  128TIP3    H2  814   4.375   0.204   2.349 -0.8633 -0.4747  0.1917
  129TIP3   OH2  815   1.235   0.067   5.066  0.7727 -0.2247 -0.4979
  129TIP3    H1  816   1.315   0.057   5.015  1.3157  2.3068 -0.1679
  129TIP3    H2  817   1.206   0.157   5.049 -2.1303 -1.1428 -0.7919
  130TIP3   OH2  818   4.723   0.576   5.097 -0.0155 -0.4331 -0.3944
  130TIP3    H1  819   4.652   0.519   5.067 -1.5107  0.5648  1.1435
  130TIP3    H2  820   4.764   0.609   5.017 -3.0619  1.1421 -1.3746
  131TIP3   OH2  821   1.957   1.611   5.485 -0.3353  0.1612  0.1419
  131TIP3    H1  822   2.043   1.648   5.468 -0.0650 -0.6766 -0.3260
  131TIP3    H2  823   1.916   1.672   5.546  0.8768  0.1681  0.9620
  132TIP3   OH2  824   2.247   0.806   2.862  0.5119  0.1774 -0.4162
  132TIP3    H1  825   2.218   0.862   2.790  0.5718  2.3349  1.1993
  132TIP3    H2  826   2.342   0.821   2.867  0.6412 -0.6008 -0.3949
  133TIP3   OH2  827   0.548   2.368   2.043 -0.2130 -0.0275  0.3836
  133TIP3    H1  828   0.591   2.286   2.016 -0.0809  0.2137 -0.1425
  133TIP3    H2  829   0.519   2.351   2.133  0.3550 -0.4427  0.4937
  134TIP3   OH2  830   2.589   2.478   0.221 -0.0168 -0.7325  0.5094
  134TIP3    H1  831   2.622   2.410   0.162 -0.5291 -0.5134 -0.0364
  134TIP3    H2  832   2.664   2.534   0.239  0.0117 -0.4774 -0.3847
  135TIP3   OH2  833   5.905   2.962   2.666 -0.0690 -0.6142 -0.3166
  135TIP3    H1  834   5.815   2.941   2.639 -0.1671 -0.3900 -0.1736
  135TIP3    H2  835   5.924   3.044   2.621 -1.3074  1.3513  2.5223
  136TIP3   OH2  836   0.584   3.805   4.581 -0.2054  0.2713 -0.0416
  136TIP3    H1  837   0.520   3.773   4.517  0.6526 -0.0299 -0.7542
  136TIP3    H2  838   0.534   3.864   4.637 -1.0365  0.2944 -0.8008
  137TIP3   OH2  839   5.710   0.381   1.032  0.0223  0.2002 -0.0650
  137TIP3    H1  840   5.752   0.467   1.037 -1.3798  0.9891 -1.6029
  137TIP3    H2  841   5.643   0.384   1.100 -0.1120  0.3699 -0.2040
  138TIP3   OH2  842   0.491   2.238   0.225 -0.0645 -0.2531 -0.8387
  138TIP3    H1  843   0.502   2.145   0.246  2.2090  0.4106  1.1678
  138TIP3    H2  844   0.452   2.238   0.138  0.5575 -3.0905 -1.1742
  139TIP3   OH2  845   1.650   1.022   3.285 -0.1042 -0.3532 -0.1841
  139TIP3    H1  846   1.601   1.048   3.363 -0.5548 -2.2624  0.1945
  139TIP3    H2  847   1.584   0.986   3.226  0.2019  1.2853 -1.5679
  140TIP3   OH2  848   0.842   1.935   0.968 -0.1931 -0.2281 -0.0542
  140TIP3    H1  849   0.890   1.857   0.939  0.3812 -0.2493  0.9457
  140TIP3    H2  850   0.767   1.940   0.908  0.5247 -0.7464 -1.0054
  141TIP3   OH2  851   1.245   3.049   1.558  0.0607  0.7818  0.0423
  141TIP3    H1  852   1.253   3.001   1.476 -0.6758 -1.0467  0.9971
  141TIP3    H2  853   1.321   3.107   1.560 -1.3663  2.8775 -3.1678
  142TIP3   OH2  854   1.487   4.169   2.228 -0.4317 -0.2284  0.1275
  142TIP3    H1  855   1.443   4.084   2.239 -0.5078 -0.0688  1.0990
  142TIP3    H2  856   1.487   4.207   2.316 -0.7119  0.9371 -0.3778
  143TIP3   OH2  857   3.572   3.527   0.873  0.2850 -0.0524  0.3024
  143TIP3    H1  858   3.550   3.436   0.856 -0.4876  0.5135 -1.9317
  143TIP3    H2  859   3.628   3.552   0.799 -1.4126  1.9347 -0.3725
  144TIP3   OH2  860   1.656   4.756   1.321 -0.0925  0.2311 -0.5082
  144TIP3    H1  861   1.605   4.678   1.340 -2.2680  1.5734 -0.7194
  144TIP3    H2  862   1.719   4.728   1.255 -0.6033 -1.4126 -0.3184
  145TIP3   OH2  863   0.466   5.769   4.472 -0.5097  0.1382 -0.3740
  145TIP3    H1  864   0.378   5.806   4.464 -0.5568  0.2383  0.5748
  145TIP3    H2  865   0.485   5.771   4.566  0.2803 -0.4077 -0.5142
  146TIP3   OH2  866   0.066   2.892   0.209 -0.0679  0.4711 -0.0640
  146TIP3    H1  867   0.066   2.796   0.201  0.2495  0.4722 -0.0761
  146TIP3    H2  868  -0.026   2.916   0.201 -0.1442  0.1701 -0.1138
  147TIP3   OH2  869   1.327   6.074   5.956  0.1728 -0.4203  0.3756
  147TIP3    H1  870   1.260   6.007   5.971 -1.3141  1.3505  1.9162
  147TIP3    H2  871   1.301   6.116   5.874  0.0651 -0.5139  0.3616
  148TIP3   OH2  872   2.666   0.466   1.119 -0.5346 -0.0287 -0.4481
  148TIP3    H1  873   2.742   0.520   1.098  0.1331 -0.4961  0.7000
  148TIP3    H2  874   2.650   0.414   1.040  1.9929 -1.8295  0.1639
  149TIP3   OH2  875   5.914   1.322   4.928 -0.3475 -0.4935 -0.2411
  149TIP3    H1  876   5.845   1.352   4.988 -0.1502  0.0933 -0.3036
  149TIP3    H2  877   5.892   1.364   4.844 -0.0026 -0.4294 -0.2992
  150TIP3   OH2  878   2.339   0.122   3.054  0.0701 -0.5343 -0.0191
  150TIP3    H1  879   2.298   0.141   3.138  0.9826  0.8398  0.1265
  150TIP3    H2  880   2.394   0.198   3.036  0.3284 -1.0747 -1.5853
  151TIP3   OH2  881   0.106   0.992   2.915  0.3762 -0.5291  0.1133
  151TIP3    H1  882   0.167   0.935   2.868  0.7455 -0.7776  0.8747
  151TIP3    H2  883   0.092   0.948   2.999  1.5199  0.9942  1.1569
  152TIP3   OH2  884   5.032   0.463   2.405 -0.3327  0.3944  0.2471
  152TIP3    H1  885   5.048   0.548   2.365 -4.9899  1.0266 -0.4914
  152TIP3    H2  886   5.045   0.400   2.333  0.1543  0.7146  0.0505
  153TIP3   OH2  887   5.933   1.023   2.213  0.2475  0.0381  0.3540
  153TIP3    H1  888   5.934   1.017   2.309 -1.5115 -0.4874  0.3525
  153TIP3    H2  889   5.982   1.104   2.195 -0.0043  0.5259  1.7289
  154TIP3   OH2  890   1.253   5.315   1.497  0.5691  0.0399  0.1791
  154TIP3    H1  891   1.198   5.289   1.571 -1.2420  1.0649 -0.7880
  154TIP3    H2  892   1.263   5.409   1.506 -2.0634  0.6152 -2.4505
  155TIP3   OH2  893   1.833   0.836   3.745  0.0207 -0.2764 -0.1390
  155TIP3    H1  894   1.826   0.741   3.756  2.6492 -0.3624  1.0539
  155TIP3    H2  895   1.815   0.850   3.652 -1.9466 -1.7429 -0.0214
  156TIP3   OH2  896   0.808   1.947   0.321 -0.5887 -0.0835 -0.3042
  156TIP3    H1  897   0.749   1.904   0.259  0.4212 -1.2825 -0.4571
  156TIP3    H2  898   0.849   2.017   0.269  0.8125 -1.5540 -1.2353
  157TIP3   OH2  899   3.517   0.408   0.494  0.1800  0.2001 -0.2279
  157TIP3    H1  900   3.611   0.396   0.510 -0.1261 -0.5409  1.0779
  157TIP3    H2  901   3.476   0.330   0.531 -1.0013  0.7338 -0.3844
  158TIP3   OH2  902   4.028   1.121   6.033  0.0410 -0.1981 -0.2732
  158TIP3    H1  903   3.941   1.123   6.073  0.8627 -0.1435  1.5838
  158TIP3    H2  904   4.040   1.031   6.004  0.0295 -0.6235  1.0146
  159TIP3   OH2  905   5.204   2.910   0.440  0.1804  0.1353  0.4122
  159TIP3    H1  906   5.157   2.993   0.448  0.2636  0.2021  0.1923
  159TIP3    H2  907   5.166   2.868   0.362  2.0301  1.1788 -1.0825
  160TIP3   OH2  908   0.202   2.050   5.636  0.7588 -0.0059 -0.2435
  160TIP3    H1  909   0.162   2.070   5.552  1.2279  1.9663 -0.0336
  160TIP3    H2  910   0.132   2.009   5.688 -0.2762  1.1627 -0.7046
  161TIP3   OH2  911   2.043   2.506   0.928  0.6321 -0.0010 -0.3436
  161TIP3    H1  912   1.958   2.542   0.954  1.0508  0.8096 -0.0782
  161TIP3    H2  913   2.083   2.478   1.010  0.4118 -0.8725 -0.5224
  162TIP3   OH2  914   0.964   5.692   1.216  0.2361 -0.1412  0.1590
  162TIP3    H1  915   1.036   5.721   1.160  2.1051 -3.9532  0.4190
  162TIP3    H2  916   0.902   5.652   1.155 -0.9053  1.6309  0.1298
  163TIP3   OH2  917   1.839   4.414   2.013  0.0626 -0.2887 -0.0257
  163TIP3    H1  918   1.906   4.367   2.062 -0.9742  0.2455  2.0097
  163TIP3    H2  919   1.774   4.347   1.990  0.2818 -0.4507 -0.1693
  164TIP3   OH2  920   1.669   4.151   2.031 -0.1636 -0.1474  0.4820
  164TIP3    H1  921   1.598   4.134   2.093 -0.7165 -3.2021 -0.8793
  164TIP3    H2  922   1.625   4.180   1.951  0.1542 -1.2353 -0.0967
  165TIP3   OH2  923   4.199   0.963   2.365 -0.1167  0.1943  0.0073
  165TIP3    H1  924   4.212   0.869   2.371  0.2217  0.1598 -1.2213
  165TIP3    H2  925   4.219   0.985   2.274  0.8027  1.6120  0.5275
  166TIP3   OH2  926   3.083   2.293   0.703 -0.3270 -0.0178  0.7631
  166TIP3    H1  927   3.052   2.303   0.613 -0.6375 -1.2981  0.7287
  166TIP3    H2  928   3.006   2.264   0.752  0.6471 -2.6639  0.7823
  167TIP3   OH2  929   1.606   5.074   1.794 -0.1123 -0.4219  0.0692
  167TIP3    H1  930   1.687   5.056   1.747  0.6445  0.6948  0.9272
  167TIP3    H2  931   1.562   5.140   1.741 -1.1180 -2.0094 -1.1092
  168TIP3   OH2  932   5.104   1.496   0.678  0.5892  0.2328  0.6375
  168TIP3    H1  933   5.146   1.571   0.638  0.9925 -1.9938 -3.3897
  168TIP3    H2  934   5.176   1.439   0.706  0.2662  0.4224  1.9210
  169TIP3   OH2  935   2.309   4.863   0.833  0.0254 -0.0627 -0.4824
  169TIP3    H1  936   2.373   4.846   0.764 -0.5024  0.3336 -1.0792
  169TIP3    H2  937   2.340   4.943   0.875 -0.3281  0.3945 -1.0804
  170TIP3   OH2  938   1.349   0.358   5.284 -0.0133 -0.6163 -0.1796
  170TIP3    H1  939   1.322   0.284   5.339 -0.0301 -0.5865 -0.1477
  170TIP3    H2  940   1.295   0.350   5.206 -0.3979 -0.3243  0.0550
  171TIP3   OH2  941   1.159   1.255   2.367 -0.1593  0.3371  0.0701
  171TIP3    H1  942   1.076   1.266   2.320 -1.7040 -0.8250  2.4605
  171TIP3    H2  943   1.141   1.191   2.435  2.0594  1.8208  2.1717
  172TIP3   OH2  944   1.828   2.518   4.821  0.2521 -0.0335 -0.0592
  172TIP3    H1  945   1.893   2.587   4.832  0.0949 -0.0284  0.8597
  172TIP3    H2  946   1.772   2.526   4.898 -0.4134 -0.4897 -0.5001
  173TIP3   OH2  947   1.773   0.821   1.947  0.4163  0.0535  0.0127
  173TIP3    H1  948   1.683   0.833   1.978  0.7162 -0.2115  1.0053
  173TIP3    H2  949   1.763   0.795   1.855 -0.6576 -2.5833  0.8212
  174TIP3   OH2  950   1.355   4.760   0.931  0.0916  0.1320  0.2417
  174TIP3    H1  951   1.397   4.676   0.911  2.2805  1.2269  0.0597
  174TIP3    H2  952   1.410   4.825   0.886 -2.7492  1.5136 -1.3308
  175TIP3   OH2  953   6.054   0.858   5.424  0.2726 -0.6528 -0.3178
  175TIP3    H1  954   5.977   0.807   5.449  0.2209 -0.3913  0.0516
  175TIP3    H2  955   6.019   0.945   5.402  0.1820 -1.1591 -2.2736
  176TIP3   OH2  956   0.973   0.043   4.928 -0.0234  0.2948  0.5708
  176TIP3    H1  957   0.899  -0.011   4.958 -1.4136  1.4572 -0.7130
  176TIP3    H2  958   1.038   0.034   4.997 -0.9195 -1.6609  1.1933
  177TIP3   OH2  959   0.592   5.399   0.495  0.9105  0.1453  0.0131
  177TIP3    H1  960   0.614   5.486   0.460  2.1779  0.1005  0.6785
  177TIP3    H2  961   0.676   5.361   0.520  0.5890 -2.1952 -2.3373
  178TIP3   OH2  962   1.905   5.705   1.190  0.0452 -0.3071 -0.1015
  178TIP3    H1  963   1.911   5.722   1.096 -0.8787 -0.4956 -0.2025
  178TIP3    H2  964   1.842   5.633   1.197  0.2270 -0.3950  0.6502
  179TIP3   OH2  965   0.136   0.845   3.147 -0.2205 -0.6400 -0.6017
  179TIP3    H1  966   0.175   0.832   3.233  2.3919  0.9734 -1.4649
  179TIP3    H2  967   0.042   0.857   3.164  0.2021 -0.7895  1.9624
  180TIP3   OH2  968   3.683   0.481   2.244  0.5670 -0.4966  0.1692
  180TIP3    H1  969   3.684   0.430   2.163 -1.3731  1.3656 -1.0573
  180TIP3    H2  970   3.606   0.450   2.291 -1.7253  2.4497 -1.4261
  181TIP3   OH2  971   1.005   2.625   4.144 -0.4263 -0.2576  0.3331
  181TIP3    H1  972   1.060   2.703   4.135 -0.6016 -0.2024 -0.2978
  181TIP3    H2  973   1.015   2.598   4.235  0.5554 -0.1848  0.2451
  182TIP3   OH2  974   3.883   0.216   1.331 -0.1021 -0.5978 -0.4923
  182TIP3    H1  975   3.948   0.277   1.367 -0.2476 -0.2542 -0.8191
  182TIP3    H2  976   3.934   0.139   1.306  0.0843 -0.5998 -0.1058
  183TIP3   OH2  977   1.028   0.447   2.756 -0.1270 -0.2334  0.2342
  183TIP3    H1  978   1.024   0.522   2.815  3.7439 -0.0187  0.3472
  183TIP3    H2  979   1.099   0.468   2.695  0.1498 -3.1986 -0.5283
  184TIP3   OH2  980   3.476   6.074   1.059 -0.4471  0.2630  0.2863
  184TIP3    H1  981   3.566   6.078   1.091 -0.5320 -0.4762  0.6359
  184TIP3    H2  982   3.480   6.111   0.971  0.2380  0.0629  0.2311
  185TIP3   OH2  983   2.271   5.323   1.134 -0.4673 -0.0650 -0.3058
  185TIP3    H1  984   2.221   5.293   1.211 -0.9060 -0.2353 -0.6531
  185TIP3    H2  985   2.302   5.410   1.159  1.3372 -1.0384  0.9447
  186TIP3   OH2  986   1.135   1.458   0.311 -0.4810  0.5168  0.0082
  186TIP3    H1  987   1.189   1.507   0.372 -1.2738  1.8164 -0.2932
  186TIP3    H2  988   1.053   1.443   0.359  0.1154 -1.4145  0.4574
  187TIP3   OH2  989   1.241   1.705   1.192 -0.5951  0.2643  0.1900
  187TIP3    H1  990   1.267   1.783   1.142 -0.2540 -0.5783 -0.9695
  187TIP3    H2  991   1.301   1.704   1.267 -1.2550  1.6606  0.7557
  188TIP3   OH2  992   0.768   6.069   3.215 -0.5004 -0.0834  0.1171
  188TIP3    H1  993   0.741   5.980   3.236 -0.7498  0.0814  0.5016
  188TIP3    H2  994   0.765   6.115   3.299 -1.5786  0.6048 -0.2841
  189TIP3   OH2  995   1.988   0.980   1.910  0.0911  0.0517  0.3680
  189TIP3    H1  996   1.910   0.937   1.944 -0.8670  3.3955  2.5542
  189TIP3    H2  997   1.981   0.969   1.815 -3.1817  0.4867  0.4949
  190TIP3   OH2  998   0.981   3.195   2.011 -0.8065 -0.1562 -0.3243
  190TIP3    H1  999   0.921   3.123   2.028 -0.6781 -0.7172 -2.1102
  190TIP3    H2 1000   0.953   3.230   1.926  0.1158  0.8864 -0.2153
  191TIP3   OH2 1001   6.034   0.026   3.282  0.3273  0.1565  0.1779
  191TIP3    H1 1002   6.087   0.089   3.331  0.5079  0.2151 -0.0936
  191TIP3    H2 1003   6.029   0.062   3.194 -0.4089  0.2997  0.2720
  192TIP3   OH2 1004   0.823   3.417   2.530 -0.6344 -0.2669 -0.2244
  192TIP3    H1 1005   0.744   3.422   2.476 -1.7410  0.8363  1.4588
  192TIP3    H2 1006   0.791   3.402   2.619  1.1439 -1.5484  0.2428
  193TIP3   OH2 1007   5.029   1.116   1.518 -0.1604  0.3755  0.3068
  193TIP3    H1 1008   4.939   1.089   1.535  0.0847  0.4080  1.7280
  193TIP3    H2 1009   5.022   1.177   1.445 -1.2944  0.3738  0.3965
  194TIP3   OH2 1010   2.451   1.967   2.130  0.1407 -0.3049 -0.2229
  194TIP3    H1 1011   2.510   2.000   2.063  0.3549  1.4920  0.8206
  194TIP3    H2 1012   2.445   2.038   2.194  0.0291 -2.0015  1.7202
  195TIP3   OH2 1013   0.528   2.793   0.557  0.5111  0.4526  0.1368
  195TIP3    H1 1014   0.477   2.716   0.530 -0.8110  1.0302  0.8897
  195TIP3    H2 1015   0.507   2.803   0.650  0.9064  1.5470  0.1158
  196TIP3   OH2 1016   0.811   3.668   5.888 -0.2196  0.0839  0.0376
  196TIP3    H1 1017   0.858   3.700   5.810  0.0679  0.6066  0.4221
  196TIP3    H2 1018   0.768   3.746   5.923  0.1591 -0.0273  0.7612
  197TIP3   OH2 1019   5.795   1.677   1.782  0.0503 -0.2861 -0.4227
  197TIP3    H1 1020   5.817   1.590   1.815  0.9505  0.7117  1.6759
  197TIP3    H2 1021   5.805   1.735   1.857 -0.8742  1.6015 -1.7049
  198TIP3   OH2 1022   5.133   0.318   0.237  0.9562 -0.3880 -0.0906
  198TIP3    H1 1023   5.179   0.237   0.215 -0.8752 -0.9704 -2.0028
  198TIP3    H2 1024   5.132   0.367   0.155  2.4209  1.7974  1.1555
  199TIP3   OH2 1025   4.126   0.769   0.293  0.1878 -0.1799  0.1851
  199TIP3    H1 1026   4.145   0.861   0.277 -1.0516 -0.0204 -0.4121
  199TIP3    H2 1027   4.169   0.723   0.220 -0.7490  0.0892 -0.5477
  200TIP3   OH2 1028   4.864   2.221   4.159 -0.8300  0.1111 -0.4655
  200TIP3    H1 1029   4.836   2.303   4.200  1.3646  1.2157 -1.1416
  200TIP3    H2 1030   4.863   2.157   4.231 -1.0239  1.0785  0.4105
  201TIP3   OH2 1031   1.904   0.907   1.040  0.2850 -0.6577  0.0203
  201TIP3    H1 1032   1.873   0.979   0.985  0.1257 -0.2987  0.5769
  201TIP3    H2 1033   1.864   0.828   1.002 -0.1739 -0.3607 -0.1116
  202TIP3   OH2 1034   2.734   0.535   1.397 -0.1541  0.6549  0.0948
  202TIP3    H1 1035   2.694   0.569   1.317 -1.3043  0.7010  0.6837
  202TIP3    H2 1036   2.751   0.443   1.378  1.4959  1.1587 -0.9358
  203TIP3   OH2 1037   1.640   0.547   1.060 -0.1369  0.0021 -0.2243
  203TIP3    H1 1038   1.695   0.469   1.053 -0.6153 -0.2274 -1.5654
  203TIP3    H2 1039   1.680   0.609   1.000  0.0465  0.6874  0.5956
  204TIP3   OH2 1040   5.994   2.389   5.360  0.5888  0.5974  0.0863
  204TIP3    H1 1041   5.989   2.427   5.448  0.4270  1.0915 -0.1397
  204TIP3    H2 1042   6.078   2.419   5.326  1.0184 -0.2487  0.3744
  205TIP3   OH2 1043   5.381   4.383   0.878  0.3204  0.2834 -0.7340
  205TIP3    H1 1044   5.456   4.442   0.872  0.1886  0.2224 -3.9637
  205TIP3    H2 1045   5.305   4.436   0.854 -0.6251  0.1554  1.7784
  206TIP3   OH2 1046   0.312   0.480   1.899  0.9214 -0.1569 -0.3372
  206TIP3    H1 1047   0.319   0.396   1.945 -0.5637 -1.0803 -1.7300
  206TIP3    H2 1048   0.219   0.503   1.905  1.0614  0.6601 -1.2177
  207TIP3   OH2 1049   1.770   6.027   5.567 -0.1193  0.1553  0.3209
  207TIP3    H1 1050   1.678   6.051   5.580 -0.0323 -0.2483  1.7590
  207TIP3    H2 1051   1.803   6.093   5.506 -1.1267  0.8516  0.5160
  208TIP3   OH2 1052   0.835   0.251   6.065 -1.1316  0.0208  0.5326
  208TIP3    H1 1053   0.756   0.217   6.107 -0.7938 -1.0697  0.3216
  208TIP3    H2 1054   0.892   0.174   6.057  0.5262  1.0647  1.9799
  209TIP3   OH2 1055   5.694   0.989   5.643  0.8819  0.1238  0.7565
  209TIP3    H1 1056   5.688   0.981   5.738 -0.8525  1.3604  0.7776
  209TIP3    H2 1057   5.612   1.031   5.617  2.7218  2.8778 -0.9314
  210TIP3   OH2 1058   3.960   5.637   0.585 -0.4520  0.1115  0.1337
  210TIP3    H1 1059   3.975   5.601   0.498  0.4434  0.6818  0.0508
  210TIP3    H2 1060   3.870   5.671   0.582 -1.0735 -1.4910  0.0062
  211TIP3   OH2 1061   1.507   2.382   4.699  0.1932  0.0958 -0.0928
  211TIP3    H1 1062   1.594   2.343   4.711  1.0242  1.6076 -1.0422
  211TIP3    H2 1063   1.514   2.468   4.738 -0.7091  0.4385 -0.6729
  212TIP3   OH2 1064   5.602   1.014   0.514 -0.5808 -0.3660 -0.2009
  212TIP3    H1 1065   5.622   1.060   0.433 -0.2986  0.7813  0.5153
  212TIP3    H2 1066   5.530   0.955   0.491 -0.7356  0.2075 -1.1932
  213TIP3   OH2 1067   0.606   4.468   1.574  0.2874 -0.4403  0.1231
  213TIP3    H1 1068   0.642   4.383   1.597 -1.6208 -0.8171  1.8735
  213TIP3    H2 1069   0.564   4.453   1.489 -1.0521 -1.6000  0.9475
  214TIP3   OH2 1070   2.340   0.710   2.494  0.0037 -0.3613  0.2722
  214TIP3    H1 1071   2.409   0.739   2.434  1.1833  0.8250  2.1869
  214TIP3    H2 1072   2.275   0.781   2.493  0.1513 -0.2227  0.6148
  215TIP3   OH2 1073   0.377   4.724   2.366 -0.4619 -0.2742  0.1419
  215TIP3    H1 1074   0.307   4.678   2.319  0.2646  0.6529 -1.9116
  215TIP3    H2 1075   0.397   4.667   2.441 -3.1103 -0.7463  0.5513
  216TIP3   OH2 1076   5.018   2.426   3.838 -0.3855 -0.0114 -0.0998
  216TIP3    H1 1077   4.929   2.402   3.861  1.0654 -3.7299  2.1974
  216TIP3    H2 1078   5.046   2.359   3.775  1.8025 -0.9363  1.7576
  217TIP3   OH2 1079   1.416   3.311   2.977  0.7574  0.0524 -0.1698
  217TIP3    H1 1080   1.418   3.299   2.882  2.1948  0.8675 -0.2555
  217TIP3    H2 1081   1.507   3.297   3.005  0.1813 -1.0529  1.1998
  218TIP3   OH2 1082   4.084   5.576   2.543  0.2919  0.4926 -0.4945
  218TIP3    H1 1083   4.021   5.618   2.601  1.6037 -1.8383  2.7933
  218TIP3    H2 1084   4.167   5.619   2.564  1.0964 -1.5959  0.7134
  219TIP3   OH2 1085   4.825   6.043   0.760 -0.6653 -0.7182 -0.6262
  219TIP3    H1 1086   4.892   6.007   0.702 -0.3813  0.3034 -0.9411
  219TIP3    H2 1087   4.865   6.038   0.847 -0.1857 -0.1321 -0.8111
  220TIP3   OH2 1088   2.372   0.669   4.713 -0.0698 -0.2446 -0.2185
  220TIP3    H1 1089   2.284   0.637   4.697 -0.9563  1.2246  1.5241
  220TIP3    H2 1090   2.428   0.592   4.707 -1.4390 -1.1461 -1.5373
  221TIP3   OH2 1091   3.487   0.723   1.968  0.6950  0.5901  0.3199
  221TIP3    H1 1092   3.464   0.717   1.875  0.4636 -1.1744  0.4740
  221TIP3    H2 1093   3.418   0.777   2.006  0.0870  0.2638 -0.3117
  222TIP3   OH2 1094   2.487   0.719   1.130 -0.2248  0.6716  0.0496
  222TIP3    H1 1095   2.511   0.641   1.080 -0.5087 -1.0285  2.4662
  222TIP3    H2 1096   2.402   0.745   1.095 -1.0699 -1.3309  0.5534
  223TIP3   OH2 1097   1.376   2.567   4.906 -0.2831 -0.2942 -0.1687
  223TIP3    H1 1098   1.446   2.631   4.894 -0.2676 -0.3369 -0.3055
  223TIP3    H2 1099   1.411   2.506   4.972 -0.1419 -0.3870 -0.3290
  224TIP3   OH2 1100   5.764   4.001   0.587 -0.0629 -0.1660  0.2749
  224TIP3    H1 1101   5.807   3.936   0.533 -0.7975  0.3998 -1.0071
  224TIP3    H2 1102   5.751   4.076   0.529 -1.2858  0.2715  1.0947
  225TIP3   OH2 1103   2.831   2.132   6.000 -0.7001 -0.4938 -0.1489
  225TIP3    H1 1104   2.883   2.178   5.934  0.1750 -0.8752  0.2640
  225TIP3    H2 1105   2.841   2.039   5.977  0.7558 -0.7218  1.3272
  226TIP3   OH2 1106   2.122   5.106   1.259  0.1692 -0.1420 -0.7071
  226TIP3    H1 1107   2.157   5.101   1.348  1.1339  0.1468 -1.0676
  226TIP3    H2 1108   2.130   5.016   1.226  2.0475  0.2446 -1.3409
  227TIP3   OH2 1109   2.206   1.770   6.023  0.1056  0.4658  0.4651
  227TIP3    H1 1110   2.180   1.727   5.941 -1.5101  0.7093  0.8476
  227TIP3    H2 1111   2.194   1.703   6.090 -0.6496  0.9524  0.8089
  228TIP3   OH2 1112   3.516   1.298   1.220  0.1812 -0.4834 -0.7556
  228TIP3    H1 1113   3.587   1.271   1.162  0.0891 -1.6802 -0.3468
  228TIP3    H2 1114   3.482   1.215   1.255 -1.1494  0.1036 -0.6405
  229TIP3   OH2 1115   1.523   5.350   1.581  0.3580 -0.1185  0.2137
  229TIP3    H1 1116   1.443   5.301   1.559 -0.4353  0.7143  1.2159
  229TIP3    H2 1117   1.590   5.313   1.523 -1.4499  1.3447 -2.9113
  230TIP3   OH2 1118   2.468   3.764   6.070 -0.1909  0.4456  0.3436
  230TIP3    H1 1119   2.405   3.743   6.001  0.5377 -0.8792  0.0589
  230TIP3    H2 1120   2.543   3.800   6.023  1.1944 -2.5007  0.1886
  231TIP3   OH2 1121   1.003   4.169   0.286 -0.2084  0.2554  0.3028
  231TIP3    H1 1122   0.975   4.257   0.312  0.0262  0.5684 -0.5042
  231TIP3    H2 1123   1.089   4.181   0.246  1.1099 -0.7047  2.7518
  232TIP3   OH2 1124   5.585   0.241   0.825 -0.5557  0.5172  0.1393
  232TIP3    H1 1125   5.651   0.265   0.890 -1.0526 -0.3915  0.9959
  232TIP3    H2 1126   5.553   0.325   0.791  1.3201  0.9648 -0.5976
  233TIP3   OH2 1127   1.229   1.985   3.874  0.1592  0.8742  0.1952
  233TIP3    H1 1128   1.286   1.963   3.948 -0.3548  2.9027  1.2348
  233TIP3    H2 1129   1.225   1.904   3.823  0.9621 -0.4233  2.0835
  234TIP3   OH2 1130   4.964   3.580   5.978 -0.1568 -0.0623 -0.1489
  234TIP3    H1 1131   4.934   3.670   5.966 -0.9665  0.0282  2.3603
  234TIP3    H2 1132   5.044   3.587   6.030 -0.2959 -0.8026  0.1766
  235TIP3   OH2 1133   3.322   2.389   5.102  0.4661  0.6863  0.0924
  235TIP3    H1 1134   3.290   2.318   5.158  1.9203 -0.9861 -1.1279
  235TIP3    H2 1135   3.255   2.399   5.035  0.2887  0.4088  0.2282
  236TIP3   OH2 1136   2.722   2.604   1.178 -0.3069 -0.2196  0.1866
  236TIP3    H1 1137   2.732   2.613   1.084  0.7274 -0.5042  0.2684
  236TIP3    H2 1138   2.687   2.516   1.191 -1.5659  0.2393  0.0016
  237TIP3   OH2 1139   1.154   0.837   5.322 -0.0940  0.6152 -0.1533
  237TIP3    H1 1140   1.123   0.747   5.318  0.2829  0.5254 -1.6115
  237TIP3    H2 1141   1.083   0.886   5.362  0.2558 -0.5547  1.9348
  238TIP3   OH2 1142   3.329   0.208   2.683  0.7168 -0.2404 -0.6287
  238TIP3    H1 1143   3.353   0.148   2.613 -2.2026  0.3447 -2.2180
  238TIP3    H2 1144   3.401   0.271   2.688  2.8108 -2.5689 -0.3703
  239TIP3   OH2 1145   4.131   2.016   1.050  0.1222 -0.2672 -0.2657
  239TIP3    H1 1146   4.185   1.937   1.051 -0.1224 -0.5067 -2.3611
  239TIP3    H2 1147   4.190   2.084   1.019  0.0482  0.1490  0.5068
  240TIP3   OH2 1148   3.895   1.482   6.069  0.3404  0.5675 -0.0273
  240TIP3    H1 1149   3.924   1.539   6.140  1.7280 -1.2550  0.9235
  240TIP3    H2 1150   3.830   1.533   6.021  1.0082  2.6340  1.2419
  241TIP3   OH2 1151   2.608   0.315   0.213 -0.2759  0.1262 -0.6362
  241TIP3    H1 1152   2.626   0.320   0.119  1.5037  0.8920 -0.2770
  241TIP3    H2 1153   2.591   0.222   0.229  1.2318 -0.2985 -1.4141
  242TIP3   OH2 1154   4.156   3.173   4.323 -0.7425 -0.1192  0.1003
  242TIP3    H1 1155   4.183   3.082   4.333  0.2623  0.2555  0.9826
  242TIP3    H2 1156   4.212   3.207   4.252 -0.8134 -0.0850  0.0618
  243TIP3   OH2 1157   0.682   0.832   5.560 -0.7451  0.0076  0.3994
  243TIP3    H1 1158   0.711   0.748   5.596 -2.1921 -1.9039 -2.6765
  243TIP3    H2 1159   0.640   0.809   5.477 -1.6975  3.7402 -0.2336
  244TIP3   OH2 1160   1.811   0.610   0.583  0.1253  0.0646  0.3235
  244TIP3    H1 1161   1.849   0.697   0.596 -0.2240  0.0680  1.3179
  244TIP3    H2 1162   1.775   0.614   0.494 -0.3375  1.1114  0.5428
  245TIP3   OH2 1163   3.291   0.744   1.272 -0.3515  0.0549  0.4313
  245TIP3    H1 1164   3.323   0.683   1.338  1.6011  0.9542  0.3350
  245TIP3    H2 1165   3.287   0.693   1.191 -0.6060 -0.4530  0.7650
  246TIP3   OH2 1166   1.951   0.352   4.946  0.6030 -0.3213 -0.2879
  246TIP3    H1 1167   1.932   0.446   4.953  1.1455 -0.2990  0.8841
  246TIP3    H2 1168   2.043   0.344   4.969  0.4731 -1.1906 -0.0766
  247TIP3   OH2 1169   3.448   1.185   5.587  0.2525 -0.0529 -0.4130
  247TIP3    H1 1170   3.365   1.228   5.609  0.7295  1.2131 -1.0996
  247TIP3    H2 1171   3.470   1.136   5.667 -0.8371  0.0840 -0.0087
  248TIP3   OH2 1172   2.500   2.367   0.490  0.6657  0.1523  0.2698
  248TIP3    H1 1173   2.455   2.283   0.493  1.4394 -0.3349 -1.0710
  248TIP3    H2 1174   2.541   2.369   0.403  1.7098  1.3542  0.7694
  249TIP3   OH2 1175   2.274   1.691   2.830 -0.1751  0.0104 -0.0229
  249TIP3    H1 1176   2.342   1.655   2.887 -0.6596 -1.0050 -0.0601
  249TIP3    H2 1177   2.203   1.627   2.835 -0.0884 -0.3063 -2.0310
  250TIP3   OH2 1178   0.867   0.824   1.348 -0.4842  1.0127  0.0397
  250TIP3    H1 1179   0.898   0.840   1.438  1.2443  0.3112 -0.4114
  250TIP3    H2 1180   0.772   0.812   1.358 -0.1824 -0.1360  1.9384
  251TIP3   OH2 1181   3.012   1.153   0.082  0.6830 -0.3263  0.0740
  251TIP3    H1 1182   2.928   1.200   0.078  0.8335  0.2966  3.0103
  251TIP3    H2 1183   3.022   1.131   0.174  3.4181 -1.0662 -0.3719
  252TIP3   OH2 1184   2.051   3.610   5.920  0.1686 -0.2635  0.5525
  252TIP3    H1 1185   2.013   3.677   5.863  0.4764 -0.7799 -0.2687
  252TIP3    H2 1186   2.140   3.641   5.938  0.5396 -0.7589 -0.3651
  253TIP3   OH2 1187   2.593   1.599   1.872  0.6467  0.2002  0.6045
  253TIP3    H1 1188   2.569   1.516   1.913  1.3414 -0.0724  0.4649
  253TIP3    H2 1189   2.592   1.580   1.778 -1.7435  1.0359  0.4412
  254TIP3   OH2 1190   1.673   3.314   3.588  0.7260 -1.0057 -0.4718
  254TIP3    H1 1191   1.608   3.258   3.544  1.8199 -2.2973 -0.4819
  254TIP3    H2 1192   1.683   3.275   3.675 -0.8283  1.0628  0.6672
  255TIP3   OH2 1193   3.232   1.101   1.033 -0.1547  0.0519  0.2986
  255TIP3    H1 1194   3.306   1.044   1.054 -0.0302  0.4936  1.0675
  255TIP3    H2 1195   3.271   1.185   1.010 -0.3456 -0.1354 -0.7368
  256TIP3   OH2 1196   1.605   5.239   0.426  0.1539 -0.0470  0.3231
  256TIP3    H1 1197   1.601   5.248   0.331  2.1883 -1.8968  0.0220
  256TIP3    H2 1198   1.613   5.328   0.458  0.2736  0.5463 -1.3029
  257TIP3   OH2 1199   1.412   1.748   1.894 -0.0079 -0.6802 -0.0146
  257TIP3    H1 1200   1.341   1.803   1.928  1.1677 -0.7488  2.6799
  257TIP3    H2 1201   1.377   1.659   1.895 -0.2287 -0.5880  0.3375
  258TIP3   OH2 1202   1.797   4.947   2.176 -0.0509  0.0636  0.1211
  258TIP3    H1 1203   1.808   4.852   2.172  1.3168  0.2274 -0.1104
  258TIP3    H2 1204   1.865   4.982   2.119 -2.3864  1.0981 -2.0867
  259TIP3   OH2 1205   0.021   6.023   2.828 -0.3442 -0.2865 -0.6448
  259TIP3    H1 1206   0.017   5.935   2.866 -2.6469  0.4361  0.8445
  259TIP3    H2 1207   0.084   6.070   2.882 -0.6590 -0.4081 -0.1736
  260TIP3   OH2 1208   3.449   5.871   2.387 -0.2351 -0.1730  0.0344
  260TIP3    H1 1209   3.416   5.801   2.443 -1.8439 -0.1969 -0.9231
  260TIP3    H2 1210   3.381   5.883   2.320  0.1996  2.0217 -0.0561
  261TIP3   OH2 1211   4.206   5.493   0.197 -0.2657  0.2952  0.3898
  261TIP3    H1 1212   4.246   5.513   0.282  0.8439  1.3563 -0.3725
  261TIP3    H2 1213   4.275   5.511   0.133 -1.4805  0.6502 -0.8383
  262TIP3   OH2 1214   2.249   3.116   1.350 -0.0272 -0.0480 -0.5211
  262TIP3    H1 1215   2.240   3.121   1.255 -3.5242 -0.1840 -0.2936
  262TIP3    H2 1216   2.266   3.024   1.369  0.2575 -0.0913 -0.9996
  263TIP3   OH2 1217   0.265   0.784   5.838 -0.2693 -0.4703 -0.2073
  263TIP3    H1 1218   0.326   0.854   5.863  0.1958 -1.6250  2.0410
  263TIP3    H2 1219   0.284   0.768   5.745 -0.2837  2.2563 -0.7134
  264TIP3   OH2 1220   4.840   2.772   4.780 -0.5634  0.1659 -0.1673
  264TIP3    H1 1221   4.845   2.719   4.860 -0.2996  2.4308  1.3668
  264TIP3    H2 1222   4.783   2.845   4.803 -1.0374  0.4919 -2.2822
  265TIP3   OH2 1223   0.583   0.753   1.360  0.3538  0.6082 -0.4614
  265TIP3    H1 1224   0.527   0.675   1.366  2.0411 -0.5187  1.4699
  265TIP3    H2 1225   0.532   0.822   1.403 -0.9920  0.4934 -1.8310
  266TIP3   OH2 1226   2.002   1.587   4.748  0.4766  0.0819 -0.8049
  266TIP3    H1 1227   2.011   1.522   4.679  1.8855 -0.8536  0.2263
  266TIP3    H2 1228   1.930   1.643   4.719 -1.2210 -2.3256 -1.3972
  267TIP3   OH2 1229   2.637   3.444   1.205  0.6146  0.0261 -0.3196
  267TIP3    H1 1230   2.692   3.499   1.262 -1.8358  2.1209  0.0976
  267TIP3    H2 1231   2.570   3.408   1.264  0.0174 -0.4563 -1.2896
  268TIP3   OH2 1232   2.398   0.881   1.778 -0.4091  0.3257 -0.0914
  268TIP3    H1 1233   2.432   0.868   1.689  3.5644 -0.4812  1.4517
  268TIP3    H2 1234   2.375   0.793   1.808  1.3790  0.1564  0.8313
  269TIP3   OH2 1235   2.649   1.360   4.896 -0.1960  0.1774 -0.2814
  269TIP3    H1 1236   2.627   1.373   4.988  0.6765  2.9554 -0.4239
  269TIP3    H2 1237   2.745   1.359   4.894 -0.1943  1.0392 -1.2592
  270TIP3   OH2 1238   2.208   1.372   5.889 -0.4772 -0.3883  0.3725
  270TIP3    H1 1239   2.143   1.305   5.911 -0.8025 -0.6772 -1.3233
  270TIP3    H2 1240   2.212   1.370   5.793  0.2749  1.2989  0.3477
  271TIP3   OH2 1241   1.560   5.476   0.603  0.2718  0.5336  0.5093
  271TIP3    H1 1242   1.496   5.533   0.646 -1.1894 -2.0531  1.8823
  271TIP3    H2 1243   1.630   5.535   0.576 -2.0757  3.2711  0.1200
  272TIP3   OH2 1244   1.777   0.230   5.121  0.1374 -1.0054 -0.3167
  272TIP3    H1 1245   1.837   0.277   5.063  2.1960  0.2396  2.7019
  272TIP3    H2 1246   1.720   0.298   5.157  0.0382 -1.5072  0.4803
  273TIP3   OH2 1247   4.257   6.086   0.566  0.1369 -0.2092 -0.5470
  273TIP3    H1 1248   4.211   6.012   0.606  0.6883 -0.3237 -0.1096
  273TIP3    H2 1249   4.270   6.148   0.638  0.4216 -0.0641 -0.7223
  274TIP3   OH2 1250   2.867   4.687   5.622  0.5273 -0.4482 -0.0512
  274TIP3    H1 1251   2.930   4.633   5.670  0.4613 -1.6831 -1.3083
  274TIP3    H2 1252   2.838   4.631   5.550 -0.4629  0.8521 -0.6840
  275TIP3   OH2 1253   4.174   1.166   0.796 -0.3344 -0.5393 -0.3134
  275TIP3    H1 1254   4.191   1.252   0.834  3.6329 -1.6416  0.6245
  275TIP3    H2 1255   4.159   1.109   0.871 -1.4548 -0.9953 -0.8644
  276TIP3   OH2 1256   2.756   2.559   4.490  0.2782  0.5012  0.2260
  276TIP3    H1 1257   2.819   2.564   4.418  1.8023  1.9059  1.6084
  276TIP3    H2 1258   2.764   2.644   4.534 -0.4493 -0.4221  2.1778
  277TIP3   OH2 1259   2.326   2.004   6.042 -0.5754 -0.0556 -0.6007
  277TIP3    H1 1260   2.287   1.917   6.049 -0.6933 -0.1085 -1.7110
  277TIP3    H2 1261   2.282   2.043   5.967 -2.4934  2.0180  1.5350
  278TIP3   OH2 1262   1.328   0.077   5.344 -0.0975  0.2315  0.0409
  278TIP3    H1 1263   1.314   0.056   5.252 -0.8502 -0.2618  0.2682
  278TIP3    H2 1264   1.258   0.032   5.391  1.3655 -1.0487  1.0600
  279TIP3   OH2 1265   2.950   0.431   0.370 -0.2894  0.5010 -0.6409
  279TIP3    H1 1266   2.994   0.464   0.448 -0.4029  2.1808 -1.2655
  279TIP3    H2 1267   2.861   0.465   0.377  0.1763  2.1557 -2.3668
  280TIP3   OH2 1268   1.888   6.023   2.980 -0.1145 -0.4520 -0.0619
  280TIP3    H1 1269   1.943   5.946   2.992  1.5200  0.4864 -1.3902
  280TIP3    H2 1270   1.880   6.062   3.067  0.0436 -1.4326  0.3954
  281TIP3   OH2 1271   3.927   4.922   4.377 -0.2545 -0.7642  0.4035
  281TIP3    H1 1272   3.998   4.907   4.440  0.1018 -1.7238 -0.2226
  281TIP3    H2 1273   3.863   4.854   4.397 -1.9652  1.3385  2.3179
  282TIP3   OH2 1274   1.694   0.181   0.923  0.9183 -0.4502 -0.3766
  282TIP3    H1 1275   1.744   0.216   0.997  1.5996 -1.3253 -0.4054
  282TIP3    H2 1276   1.698   0.249   0.856  1.8780 -0.4096 -0.2823
  283TIP3   OH2 1277   1.912   0.490   5.748 -0.1037 -0.5738 -0.1102
  283TIP3    H1 1278   1.863   0.573   5.749  0.5298 -0.1304 -1.9951
  283TIP3    H2 1279   1.846   0.424   5.730 -0.2605 -0.1437 -1.1967
  284TIP3   OH2 1280   1.021   0.894   0.901 -0.1237 -0.0847 -0.2104
  284TIP3    H1 1281   1.014   0.799   0.908 -0.8549 -0.0119  0.0938
  284TIP3    H2 1282   1.005   0.926   0.990 -0.2398  0.3431 -0.3830
  285TIP3   OH2 1283   3.699   5.979   6.029 -0.3736  0.0092  0.0625
  285TIP3    H1 1284   3.762   6.051   6.024 -0.2819 -0.0760 -0.0148
  285TIP3    H2 1285   3.753   5.900   6.041 -0.4862 -0.0214  0.3690
  286TIP3   OH2 1286   4.591   5.884   2.011  0.0101 -0.0937  0.3146
  286TIP3    H1 1287   4.575   5.795   1.982 -0.9064 -0.2756  1.3453
  286TIP3    H2 1288   4.674   5.908   1.970 -1.0316 -0.4752 -2.0948
  287TIP3   OH2 1289   2.357   5.093   0.955  0.6380  0.1527 -0.2938
  287TIP3    H1 1290   2.313   5.040   1.020  0.5047  1.9677  1.1529
  287TIP3    H2 1291   2.389   5.169   1.004 -0.6148  2.2079 -2.5571
  288TIP3   OH2 1292   2.341   0.420   0.976 -0.2975  0.4242  0.1801
  288TIP3    H1 1293   2.366   0.360   0.906 -0.8210 -0.4612  0.7524
  288TIP3    H2 1294   2.371   0.506   0.945  1.8416 -0.3527  0.0663
  289TIP3   OH2 1295   3.781   1.982   2.468 -0.1892 -0.3683 -0.0228
  289TIP3    H1 1296   3.726   2.060   2.481  0.7144  0.1541  0.8473
  289TIP3    H2 1297   3.822   1.969   2.554 -0.6454 -2.0578 -0.0615
  290TIP3   OH2 1298   3.696   4.755   4.949 -0.2719  0.2502  0.3574
  290TIP3    H1 1299   3.684   4.768   4.855  4.4222 -0.1553 -0.3717
  290TIP3    H2 1300   3.670   4.839   4.988 -0.1593  1.1454 -1.4724
  291TIP3   OH2 1301   2.256   5.663   2.329  0.0701 -0.1686  0.0653
  291TIP3    H1 1302   2.213   5.685   2.411 -3.0054  1.9592 -2.0154
  291TIP3    H2 1303   2.320   5.733   2.316  2.3142 -1.8385  1.7982
  292TIP3   OH2 1304   3.077   1.133   1.282 -0.0317  0.9786  0.2368
  292TIP3    H1 1305   3.000   1.189   1.280 -1.4370 -0.9438 -0.4972
  292TIP3    H2 1306   3.124   1.153   1.201 -1.3409  0.0070 -0.7862
  293TIP3   OH2 1307   2.717   1.911   1.900 -0.0481 -0.1424 -0.0461
  293TIP3    H1 1308   2.772   1.884   1.827  0.8230  0.2525  0.4641
  293TIP3    H2 1309   2.721   1.837   1.961 -1.3168 -0.7603 -0.6856
  294TIP3   OH2 1310   1.724   2.045   0.619 -0.5136  0.3747 -0.2635
  294TIP3    H1 1311   1.798   2.010   0.570 -0.2030 -0.2830  0.6589
  294TIP3    H2 1312   1.719   2.137   0.593  1.2502  0.6893  0.3908
  295TIP3   OH2 1313   1.545   0.735   2.308 -0.2050 -0.1400  0.0207
  295TIP3    H1 1314   1.500   0.820   2.314  0.7393  0.5377 -1.8851
  295TIP3    H2 1315   1.638   0.757   2.314  0.0797 -0.9194 -1.2938
  296TIP3   OH2 1316   3.524   4.984   2.173 -0.3144  0.1999  0.3292
  296TIP3    H1 1317   3.591   5.053   2.171  0.9232 -0.9363  1.4301
  296TIP3    H2 1318   3.559   4.919   2.233 -0.3875 -2.4971 -2.4674
  297TIP3   OH2 1319   2.848   0.833   1.530 -0.4018  0.5928  0.6173
  297TIP3    H1 1320   2.788   0.901   1.501 -1.8008  0.1307  2.3543
  297TIP3    H2 1321   2.917   0.832   1.464 -1.3909  2.3314 -0.4696
  298TIP3   OH2 1322   3.510   1.735   1.382 -0.2760 -0.5223  0.2592
  298TIP3    H1 1323   3.577   1.668   1.395 -0.8455 -0.7499  2.2724
  298TIP3    H2 1324   3.440   1.691   1.334  1.7174  0.1910 -3.4049
  299TIP3   OH2 1325   2.415   5.891   2.005 -0.3756  0.2378 -0.3791
  299TIP3    H1 1326   2.482   5.834   2.043  0.0986  0.0108 -1.5578
  299TIP3    H2 1327   2.436   5.978   2.040  0.3267  0.1107 -0.4778
  300TIP3   OH2 1328   3.054   0.858   1.345 -0.0023 -0.3816  0.1122
  300TIP3    H1 1329   3.057   0.949   1.315 -2.1402  0.1965  1.5047
  300TIP3    H2 1330   3.129   0.816   1.303  1.1728  2.0765 -0.3422
  301TIP3   OH2 1331   3.768   1.321   1.054  0.2950 -0.3194 -0.0267
  301TIP3    H1 1332   3.855   1.360   1.053  0.4697 -0.6711  0.8213
  301TIP3    H2 1333   3.766   1.264   0.977  1.2125 -1.1713  0.5854
  302TIP3   OH2 1334   1.727   1.600   2.306 -0.6055 -0.1415  0.6763
  302TIP3    H1 1335   1.778   1.557   2.237  0.4245 -1.8774  2.4997
  302TIP3    H2 1336   1.647   1.548   2.314 -1.1603  0.6057  0.1940
  303TIP3   OH2 1337   3.870   1.981   1.095  0.1006  0.4058 -0.5274
  303TIP3    H1 1338   3.834   2.024   1.017  1.7572  1.2602 -0.8494
  303TIP3    H2 1339   3.954   2.025   1.110 -0.7563  1.1058  2.4994
  304TIP3   OH2 1340   1.521   0.053   5.553 -0.1162 -0.4206  0.1992
  304TIP3    H1 1341   1.466   0.094   5.620 -0.5684 -1.7613  0.6662
  304TIP3    H2 1342   1.470   0.059   5.472 -0.3342 -0.3928  0.3391
  305TIP3   OH2 1343   2.750   1.792   0.628  0.2508 -0.3906 -0.0558
  305TIP3    H1 1344   2.832   1.839   0.643 -0.8526  1.0429  1.6366
  305TIP3    H2 1345   2.771   1.701   0.648  2.1103 -0.4986 -2.2589
  306TIP3   OH2 1346   1.758   3.313   0.761  0.3601 -0.5399  0.1994
  306TIP3    H1 1347   1.760   3.409   0.764 -0.6991 -0.5141  0.2762
  306TIP3    H2 1348   1.728   3.287   0.848  2.2749 -1.0239  0.7583
  307TIP3   OH2 1349   2.526   1.299   4.645  0.0019  0.0240  0.2143
  307TIP3    H1 1350   2.520   1.203   4.643  2.6138 -0.1869  0.1251
  307TIP3    H2 1351   2.538   1.320   4.738 -0.9812  0.2945  0.2782
  308TIP3   OH2 1352   4.564   0.535   1.766  0.4372 -0.2317  0.8321
  308TIP3    H1 1353   4.626   0.599   1.730 -0.5856  0.2727 -0.0460
  308TIP3    H2 1354   4.522   0.580   1.838  0.4257 -0.2587  0.8418
  309TIP3   OH2 1355   2.613   2.427   1.637 -0.4677  0.6506 -0.4854
  309TIP3    H1 1356   2.698   2.455   1.670 -1.6837  1.9918  1.5840
  309TIP3    H2 1357   2.615   2.331   1.645  1.4039  0.5451 -1.9067
  310TIP3   OH2 1358   3.004   2.431   5.590 -0.1263 -0.3031 -0.6747
  310TIP3    H1 1359   2.994   2.440   5.495  2.3339  0.5432 -0.8897
  310TIP3    H2 1360   2.958   2.349   5.610  0.2039 -1.0493 -2.7599
  311TIP3   OH2 1361   0.103   4.271   3.225 -0.6733  0.1624 -0.2627
  311TIP3    H1 1362   0.177   4.281   3.166  0.8531  0.4525  1.6582
  311TIP3    H2 1363   0.040   4.337   3.196 -0.1338  0.0122 -1.8151
  312TIP3   OH2 1364   5.891   1.205   4.264  0.0478  0.1312 -0.8078
  312TIP3    H1 1365   5.949   1.278   4.286  1.6512 -1.3328 -0.0192
  312TIP3    H2 1366   5.943   1.150   4.204  0.6700 -2.7138  2.1782
  313TIP3   OH2 1367   0.811   2.922   1.737 -0.2640  0.2427  0.5601
  313TIP3    H1 1368   0.721   2.908   1.707  0.0238 -1.7799  0.5635
  313TIP3    H2 1369   0.863   2.857   1.689  1.2592  1.6321  0.2846
  314TIP3   OH2 1370   6.004   0.557   5.798 -0.3258  0.1622  0.7399
  314TIP3    H1 1371   6.002   0.471   5.840  0.2975 -0.3223 -0.2014
  314TIP3    H2 1372   6.087   0.559   5.751 -0.5456  1.1011  0.3694
  315TIP3   OH2 1373   1.084   4.280   4.482  0.0202  0.0884 -0.1617
  315TIP3    H1 1374   1.157   4.341   4.493 -1.3895  2.2520 -2.1601
  315TIP3    H2 1375   1.116   4.215   4.420  0.6752  0.2866 -0.0368
  316TIP3   OH2 1376   2.494   0.605   0.823  0.3673 -0.3936 -0.5132
  316TIP3    H1 1377   2.533   0.566   0.744  1.2010 -1.4172  0.3971
  316TIP3    H2 1378   2.557   0.671   0.852 -0.1963  0.3731 -1.0044
  317TIP3   OH2 1379   2.431   1.748   1.100 -0.1585  0.3326 -0.1758
  317TIP3    H1 1380   2.470   1.801   1.031  2.7048  0.6553  1.6115
  317TIP3    H2 1381   2.392   1.673   1.055 -1.1095  2.0998 -2.3773
  318TIP3   OH2 1382   2.988   1.499   3.004  0.4194 -0.0026 -0.0652
  318TIP3    H1 1383   2.963   1.590   3.016 -1.3107 -0.3038 -1.2777
  318TIP3    H2 1384   3.011   1.468   3.092 -1.2411  0.9404  0.7078
  319TIP3   OH2 1385   0.808   3.954   5.688  0.3336 -0.2982  0.4106
  319TIP3    H1 1386   0.896   3.939   5.722  0.2065  0.0448  0.9090
  319TIP3    H2 1387   0.817   4.029   5.630  0.3691 -0.2468  0.4814
  320TIP3   OH2 1388   2.594   0.274   2.662  0.5496 -0.1354  0.0333
  320TIP3    H1 1389   2.504   0.304   2.672  0.1654 -0.4776 -2.0773
  320TIP3    H2 1390   2.646   0.354   2.658 -0.1450  0.2514 -2.6571
  321TIP3   OH2 1391   4.668   2.582   5.796 -0.2670  0.5276  0.5326
  321TIP3    H1 1392   4.649   2.559   5.887  0.2492  1.8874  0.9969
  321TIP3    H2 1393   4.583   2.577   5.753 -0.2210 -2.0094  0.6317
  322TIP3   OH2 1394   1.410   1.691   1.428 -0.2965 -0.5892 -0.2774
  322TIP3    H1 1395   1.422   1.784   1.408 -1.1931 -1.2571 -4.1699
  322TIP3    H2 1396   1.340   1.690   1.494  1.0085  1.5495  1.2170
  323TIP3   OH2 1397   3.038   0.888   4.929  0.2421 -0.0751 -0.0350
  323TIP3    H1 1398   2.976   0.937   4.982 -0.1353 -0.5049 -0.0843
  323TIP3    H2 1399   3.099   0.850   4.992  0.2239  0.0194  0.0395
  324TIP3   OH2 1400   1.139   2.122   1.437  0.6004 -0.8181 -0.3192
  324TIP3    H1 1401   1.215   2.083   1.393 -0.0572 -1.6120 -0.7652
  324TIP3    H2 1402   1.103   2.183   1.372  1.9448  0.9866  0.5693
  325TIP3   OH2 1403   1.647   0.043   5.896  0.6548  0.7475 -0.0546
  325TIP3    H1 1404   1.728   0.007   5.933  1.2765  1.2525 -0.9108
  325TIP3    H2 1405   1.577   0.005   5.950  1.4895  0.7751  1.0645
  326TIP3   OH2 1406   3.493   1.196   1.598 -0.5596  0.6354 -0.5772
  326TIP3    H1 1407   3.535   1.132   1.540  1.0217  2.6511 -1.7078
  326TIP3    H2 1408   3.557   1.212   1.667 -1.7365 -0.4257  0.8023
  327TIP3   OH2 1409   3.356   5.460   2.219  0.0528 -0.0657  0.1536
  327TIP3    H1 1410   3.263   5.479   2.209 -0.0989 -0.1400  1.4180
  327TIP3    H2 1411   3.378   5.488   2.308  1.2839  0.1414 -0.2027
  328TIP3   OH2 1412   2.702   3.177   5.010 -0.3227  0.5758 -0.0030
  328TIP3    H1 1413   2.706   3.187   5.105 -0.5173  1.9323 -0.1353
  328TIP3    H2 1414   2.681   3.084   4.997 -1.9943  0.7486  1.3162
  329TIP3   OH2 1415   2.125   4.680   0.893  0.0894 -0.7711  0.1165
  329TIP3    H1 1416   2.061   4.698   0.824  0.7367 -1.8260 -0.7810
  329TIP3    H2 1417   2.196   4.742   0.875 -0.0957 -0.4912  0.3348
  330TIP3   OH2 1418   0.376   2.909   2.473  0.0581 -0.2956 -0.4501
  330TIP3    H1 1419   0.465   2.935   2.497 -0.9280  0.1061  2.9897
  330TIP3    H2 1420   0.363   2.949   2.386  3.0186  0.0473 -0.8203
  331TIP3   OH2 1421   2.346   0.229   1.460  0.3300  0.2305  0.3471
  331TIP3    H1 1422   2.385   0.145   1.484 -0.3917 -0.0804  0.4447
  331TIP3    H2 1423   2.383   0.249   1.374 -0.4538 -0.8138 -0.2484
  332TIP3   OH2 1424   2.182   1.748   5.186 -0.0804 -1.0193  0.1970
  332TIP3    H1 1425   2.143   1.818   5.239  0.2981 -1.0839  0.5666
  332TIP3    H2 1426   2.108   1.694   5.160 -0.1280 -1.7419  1.7919
  333TIP3   OH2 1427   2.906   1.293   5.524  0.0260  0.5303 -0.2599
  333TIP3    H1 1428   2.874   1.203   5.521 -0.2921  0.4789  2.7149
  333TIP3    H2 1429   2.828   1.345   5.546  0.9283  1.0363  1.8200
  334TIP3   OH2 1430   1.722   1.441   0.611 -0.0036  0.6947 -0.0335
  334TIP3    H1 1431   1.666   1.402   0.544  1.2258 -1.2608  0.0362
  334TIP3    H2 1432   1.696   1.533   0.614 -1.8291  0.2388 -1.3853
  335TIP3   OH2 1433   3.338   4.921   1.882  0.5317  0.2713  0.2443
  335TIP3    H1 1434   3.286   4.842   1.887  0.5820  0.1872 -0.4793
  335TIP3    H2 1435   3.280   4.991   1.913 -0.1332  0.2313 -0.8606
  336TIP3   OH2 1436   3.257   0.587   1.502  0.4496  0.0218  0.4850
  336TIP3    H1 1437   3.287   0.580   1.592  0.3501  0.5992  0.5647
  336TIP3    H2 1438   3.162   0.577   1.508  0.2918  1.4574  0.6133
  337TIP3   OH2 1439   2.314   6.092   0.348  0.7787 -0.3675 -0.0994
  337TIP3    H1 1440   2.238   6.151   0.351  1.4048  0.4141  0.5405
  337TIP3    H2 1441   2.276   6.004   0.352 -0.1634 -0.0203 -1.0439
  338TIP3   OH2 1442   1.555   3.003   5.730  0.7803 -0.2646 -0.1599
  338TIP3    H1 1443   1.616   3.076   5.715 -0.7226  1.1286  0.3499
  338TIP3    H2 1444   1.561   2.986   5.824  2.5690 -2.1310 -0.5762
  339TIP3   OH2 1445   2.526   1.544   0.602 -0.0209  0.0294  0.5759
  339TIP3    H1 1446   2.576   1.485   0.657 -0.6666 -0.3569  0.7520
  339TIP3    H2 1447   2.524   1.501   0.516 -1.2462 -0.6462  0.9311
  340TIP3   OH2 1448   5.937   4.804   2.878 -0.3372  0.0142  0.3410
  340TIP3    H1 1449   5.859   4.814   2.931 -0.3708  1.3239  0.0615
  340TIP3    H2 1450   5.925   4.720   2.833 -0.5593 -0.8379  1.9483
  341TIP3   OH2 1451   1.893   1.245   2.530  0.3730  0.3608  0.2271
  341TIP3    H1 1452   1.911   1.210   2.617  1.3693  2.1658  0.7744
  341TIP3    H2 1453   1.852   1.330   2.547 -1.9417 -0.4679 -1.0665
  342TIP3   OH2 1454   1.028   1.177   2.701 -0.1095  0.2145 -0.3611
  342TIP3    H1 1455   1.070   1.107   2.652 -0.6139 -0.3121 -0.0418
  342TIP3    H2 1456   0.944   1.141   2.729 -1.1989  1.5535 -1.7837
  343TIP3   OH2 1457   3.545   3.882   1.113 -0.1523  0.1915  0.6870
  343TIP3    H1 1458   3.552   3.914   1.203  0.3952 -1.4759  1.2645
  343TIP3    H2 1459   3.606   3.936   1.063 -0.2835  0.9697  1.3517
  344TIP3   OH2 1460   4.086   5.688   3.115  0.1589  0.2653 -0.0550
  344TIP3    H1 1461   4.153   5.705   3.048 -1.1224  0.3850 -1.3214
  344TIP3    H2 1462   4.003   5.701   3.070 -0.7811 -2.4499  0.7834
  345TIP3   OH2 1463   2.773   3.756   4.998 -0.1674 -0.1720  0.1692
  345TIP3    H1 1464   2.709   3.727   5.063 -2.2428  3.1741 -0.2446
  345TIP3    H2 1465   2.728   3.744   4.914  0.6079  0.1193 -0.2877
  346TIP3   OH2 1466   1.202   2.862   1.334 -0.4673  0.1007  0.2240
  346TIP3    H1 1467   1.121   2.885   1.287 -0.1595 -0.2114 -0.4806
  346TIP3    H2 1468   1.179   2.783   1.384 -0.8787  0.5984  0.8237
  347TIP3   OH2 1469   1.374   0.382   0.080  0.2985  0.0452 -0.4280
  347TIP3    H1 1470   1.467   0.362   0.072  0.1327 -0.6460 -0.6854
  347TIP3    H2 1471   1.333   0.298   0.101 -0.5550 -0.1118 -2.6191
  348TIP3   OH2 1472   3.077   0.881   2.687  0.1604  0.4238  0.2702
  348TIP3    H1 1473   3.162   0.924   2.687  1.6999 -2.4531 -0.5672
  348TIP3    H2 1474   3.034   0.913   2.607  0.4138  1.9279  0.7202
  349TIP3   OH2 1475   3.568   6.067   5.042  0.4569  0.0015  0.7001
  349TIP3    H1 1476   3.565   6.119   5.122 -0.7765  0.0589  0.6383
  349TIP3    H2 1477   3.628   5.995   5.061  1.2693  0.8111  1.1801
  350TIP3   OH2 1478   1.895   0.668   0.112  0.5510  0.2787  0.1386
  350TIP3    H1 1479   1.831   0.695   0.178 -0.9801  0.6967 -1.5041
  350TIP3    H2 1480   1.896   0.739   0.048 -0.0052 -1.3539 -1.7342
  351TIP3   OH2 1481   1.890   0.312   5.981 -0.1324 -0.1299 -0.1903
  351TIP3    H1 1482   1.967   0.256   5.975 -0.5101 -0.7315  0.4262
  351TIP3    H2 1483   1.869   0.335   5.891  2.0447  1.8311 -0.2559
  352TIP3   OH2 1484   3.265   0.770   2.196 -0.2468 -0.0780  0.6724
  352TIP3    H1 1485   3.319   0.698   2.163 -0.8742  0.6969 -2.2079
  352TIP3    H2 1486   3.176   0.748   2.168 -0.8400  0.5742  2.0003
  353TIP3   OH2 1487   4.324   1.166   3.050 -0.0632 -1.0821  0.4019
  353TIP3    H1 1488   4.339   1.074   3.030 -0.0609 -0.8862 -0.5162
  353TIP3    H2 1489   4.401   1.211   3.017 -0.3843 -0.6705  0.2088
  354TIP3   OH2 1490   2.033   0.946   4.518 -0.4175  0.4211  0.2872
  354TIP3    H1 1491   1.955   0.974   4.470 -0.8579 -2.4719 -0.8085
  354TIP3    H2 1492   2.101   0.941   4.452 -0.5650 -1.8208  0.2756
  355TIP3   OH2 1493   3.609   5.375   2.449  0.5131  0.0608 -0.6560
  355TIP3    H1 1494   3.624   5.352   2.357  2.4258  0.2997 -0.4310
  355TIP3    H2 1495   3.650   5.461   2.459  1.2369 -0.4172  0.6560
  356TIP3   OH2 1496   2.764   1.503   5.599  0.8661  0.3382  0.3043
  356TIP3    H1 1497   2.782   1.489   5.692  1.4411  3.1990  0.6539
  356TIP3    H2 1498   2.669   1.492   5.592  0.6267  1.5555  1.5083
  357TIP3   OH2 1499   3.679   4.660   1.180 -0.2222 -0.7117  0.0525
  357TIP3    H1 1500   3.722   4.702   1.254  1.6062 -1.8586 -0.3350
  357TIP3    H2 1501   3.691   4.566   1.196 -0.2489 -0.9708 -1.4517
  358TIP3   OH2 1502   1.643   5.080   2.857 -0.6941  0.0491 -0.1429
  358TIP3    H1 1503   1.731   5.118   2.861 -0.9202  0.9015 -2.3457
  358TIP3    H2 1504   1.587   5.144   2.903 -0.4522  0.4697 -0.4259
  359TIP3   OH2 1505   3.795   4.592   0.907  0.1689  0.3189 -0.1644
  359TIP3    H1 1506   3.756   4.509   0.877 -0.4561  0.8011 -0.6855
  359TIP3    H2 1507   3.740   4.619   0.980  0.3332  0.3093 -0.0379
  360TIP3   OH2 1508   4.272   0.855   1.851 -0.3497  0.2846  0.1121
  360TIP3    H1 1509   4.263   0.774   1.801  2.1948 -0.7502  1.2696
  360TIP3    H2 1510   4.316   0.916   1.792 -0.2332  0.1041  0.0150
  361TIP3   OH2 1511   3.673   5.747   1.104 -0.1411 -0.4698 -0.0447
  361TIP3    H1 1512   3.697   5.718   1.016 -0.8777 -0.5317 -0.2298
  361TIP3    H2 1513   3.714   5.682   1.162  1.3009  0.2193 -0.2790
  362TIP3   OH2 1514   1.451   3.239   1.955  0.6471  0.1688  0.1516
  362TIP3    H1 1515   1.371   3.274   1.994 -0.3143 -0.2295 -1.4108
  362TIP3    H2 1516   1.449   3.146   1.978  0.2560  0.0030 -0.5473
  363TIP3   OH2 1517   5.954   3.055   0.967  0.5664  0.4632  0.0635
  363TIP3    H1 1518   5.913   3.130   0.922  0.9104  0.1827 -0.7215
  363TIP3    H2 1519   5.885   2.990   0.972  1.1967 -0.4291 -2.2444
  364TIP3   OH2 1520   3.105   6.055   2.499 -0.6843 -0.8291  0.5916
  364TIP3    H1 1521   3.037   6.108   2.458 -1.4347 -2.8426 -0.8512
  364TIP3    H2 1522   3.187   6.091   2.466 -1.1821 -0.3739 -0.1444
  365TIP3   OH2 1523   2.031   0.132   5.696  0.1632  0.4256 -0.6656
  365TIP3    H1 1524   2.035   0.091   5.610  0.2712 -0.7236 -0.1243
  365TIP3    H2 1525   1.942   0.167   5.703 -0.3886 -0.9674 -0.5763
  366TIP3   OH2 1526   2.865   1.664   1.996  0.3728  0.5171 -0.8628
  366TIP3    H1 1527   2.877   1.590   2.056 -0.4706  1.0029 -0.0737
  366TIP3    H2 1528   2.800   1.634   1.933 -0.9605  1.0076  0.2316
  367TIP3   OH2 1529   5.240   5.770   1.545  0.0742 -0.1837 -0.1482
  367TIP3    H1 1530   5.263   5.837   1.481 -3.0139 -0.1375 -1.3067
  367TIP3    H2 1531   5.187   5.817   1.610  0.9911 -0.7759  1.0465
  368TIP3   OH2 1532   2.081   1.791   0.466  0.1569 -0.3342 -0.0887
  368TIP3    H1 1533   2.147   1.784   0.397 -0.6410 -0.9956 -0.8019
  368TIP3    H2 1534   2.080   1.703   0.506 -0.4674 -0.3985 -0.2480
  369TIP3   OH2 1535   3.575   1.503   0.976 -0.3059 -0.5650 -0.5731
  369TIP3    H1 1536   3.638   1.449   1.024  0.4975  0.3938 -0.5492
  369TIP3    H2 1537   3.566   1.460   0.891 -0.7598 -1.5401 -0.0429
  370TIP3   OH2 1538   0.934   1.939   1.239 -0.1231  0.4267  0.4885
  370TIP3    H1 1539   0.905   1.931   1.148  0.2002 -1.6868  0.5323
  370TIP3    H2 1540   1.020   1.980   1.233  0.6707 -1.2923 -0.3237
  371TIP3   OH2 1541   0.882   0.127   1.522 -0.6557 -0.4822 -0.3022
  371TIP3    H1 1542   0.887   0.212   1.478 -1.4082  0.1299  0.7809
  371TIP3    H2 1543   0.852   0.066   1.454 -1.2399  0.3419 -0.7849
  372TIP3   OH2 1544   4.076   0.437   4.551  0.4971  0.0001  0.4271
  372TIP3    H1 1545   4.049   0.380   4.480  0.7824  0.5943 -0.1644
  372TIP3    H2 1546   4.102   0.519   4.508 -1.1787  1.0542  1.3561
  373TIP3   OH2 1547   1.703   1.583   4.545 -0.1382  0.0867  0.5476
  373TIP3    H1 1548   1.637   1.521   4.576 -0.9794  0.6967  0.0110
  373TIP3    H2 1549   1.655   1.642   4.488  0.5314  1.5893  1.5034
  374TIP3   OH2 1550   3.036   2.947   0.742 -0.1161  0.2560 -0.5875
  374TIP3    H1 1551   3.038   2.886   0.667 -3.1333 -0.1679 -0.4072
  374TIP3    H2 1552   3.092   2.906   0.807 -1.5059 -2.0253 -0.7521
  375TIP3   OH2 1553   1.648   1.774   1.766  0.2468 -0.6913  0.4925
  375TIP3    H1 1554   1.562   1.760   1.804  0.2131 -2.6262 -0.2608
  375TIP3    H2 1555   1.663   1.698   1.710  3.7686 -1.9328  2.9931
  376TIP3   OH2 1556   3.946   5.455   1.519 -0.2352  0.0763  0.0603
  376TIP3    H1 1557   3.893   5.508   1.579  1.0989 -0.2942  1.5839
  376TIP3    H2 1558   3.978   5.382   1.573  0.8657 -0.3429 -1.1395
  377TIP3   OH2 1559   2.459   2.996   0.421 -0.9670 -0.2732  0.5458
  377TIP3    H1 1560   2.475   3.083   0.385 -0.9500 -0.4496  0.1323
  377TIP3    H2 1561   2.369   2.976   0.398 -0.7611 -0.6476  0.0540
  378TIP3   OH2 1562   3.929   0.942   2.064  0.1512 -0.3000 -0.7440
  378TIP3    H1 1563   3.844   0.961   2.105 -1.3695  1.7885 -4.6073
  378TIP3    H2 1564   3.915   0.861   2.017 -0.0231  0.5419 -2.1646
  379TIP3   OH2 1565   1.234   1.101   5.276  0.0581 -0.5918  0.1581
  379TIP3    H1 1566   1.209   1.131   5.364 -0.1567 -1.2410  0.3173
  379TIP3    H2 1567   1.224   1.006   5.279 -1.8508 -0.4585 -1.1772
  380TIP3   OH2 1568   6.081   4.748   3.114  0.6120  0.7606 -0.3525
  380TIP3    H1 1569   6.038   4.759   3.029  2.2811 -0.6471 -1.4004
  380TIP3    H2 1570   6.145   4.819   3.118  1.7324 -0.1886 -1.0513
  381TIP3   OH2 1571   6.024   2.634   0.498  0.2066 -0.2802  0.2496
  381TIP3    H1 1572   5.990   2.714   0.538  1.3870 -0.2984  1.3101
  381TIP3    H2 1573   6.019   2.569   0.568  0.7577 -0.7227 -0.1250
  382TIP3   OH2 1574   4.039   3.065   2.070 -0.1630  0.0209  0.2076
  382TIP3    H1 1575   4.024   2.978   2.033 -0.1120 -0.7004  1.8713
  382TIP3    H2 1576   3.952   3.099   2.086 -0.1744  0.0903  0.0035
  383TIP3   OH2 1577   4.911   4.953   4.930 -0.0239  0.2280  0.6653
  383TIP3    H1 1578   4.872   4.934   4.844 -2.0316 -0.0502  1.6268
  383TIP3    H2 1579   4.845   4.926   4.993  1.6394  0.0029  2.3305
  384TIP3   OH2 1580   2.506   2.841   0.200 -0.1943 -0.0032  0.4835
  384TIP3    H1 1581   2.515   2.884   0.285  1.7076 -1.4563  1.0558
  384TIP3    H2 1582   2.449   2.766   0.217  0.8529 -0.7650  0.6698
  385TIP3   OH2 1583   4.566   4.336   4.176  0.3311 -0.2553  0.0340
  385TIP3    H1 1584   4.579   4.323   4.082 -1.2964 -1.5827 -0.0459
  385TIP3    H2 1585   4.652   4.320   4.215  0.8044 -0.6371 -1.1384
  386TIP3   OH2 1586   4.588   5.833   0.079  0.0733 -0.2753  0.1308
  386TIP3    H1 1587   4.560   5.919   0.046  1.0924 -0.0891 -0.2674
  386TIP3    H2 1588   4.561   5.772   0.010  1.5798  0.0332 -0.7662
  387TIP3   OH2 1589   0.895   1.253   2.297  0.0477 -0.0326 -0.5446
  387TIP3    H1 1590   0.864   1.216   2.214  2.1693  0.0506 -1.4223
  387TIP3    H2 1591   0.871   1.187   2.363  1.0723 -1.5716 -1.6692
  388TIP3   OH2 1592   2.078   5.940   2.356 -0.5914  0.3409  0.3873
  388TIP3    H1 1593   2.145   5.949   2.424 -2.2942  0.8747  2.0244
  388TIP3    H2 1594   2.091   6.016   2.299  1.0217 -0.2532 -0.0671
  389TIP3   OH2 1595   4.514   4.201   0.189 -0.1465  0.1226 -0.1695
  389TIP3    H1 1596   4.596   4.222   0.145  0.6209  0.5495  1.4463
  389TIP3    H2 1597   4.519   4.247   0.272  0.3622 -4.2022  2.3157
  390TIP3   OH2 1598   5.377   0.435   5.222 -0.6958 -0.4494 -0.2490
  390TIP3    H1 1599   5.471   0.450   5.226 -0.6690 -0.2379 -1.5067
  390TIP3    H2 1600   5.354   0.403   5.309  0.7026 -1.4398 -0.2362
  391TIP3   OH2 1601   0.274   0.483   1.075 -0.4568 -0.4936 -0.6516
  391TIP3    H1 1602   0.237   0.394   1.080  0.0475 -0.6934 -0.4914
  391TIP3    H2 1603   0.331   0.481   0.999 -1.3898  0.0530 -1.3799
  392TIP3   OH2 1604   6.022   1.897   1.877 -0.1674 -0.3625  0.0895
  392TIP3    H1 1605   5.963   1.890   1.951  0.3769  1.8226  0.7767
  392TIP3    H2 1606   6.109   1.888   1.915  0.1177  0.8561 -0.2372
  393TIP3   OH2 1607   2.918   0.240   6.085 -0.3479  0.0605  0.0097
  393TIP3    H1 1608   2.889   0.259   5.996  2.0472 -1.9509 -1.2595
  393TIP3    H2 1609   2.945   0.325   6.120 -2.9908  1.1575 -0.4910
  394TIP3   OH2 1610   2.726   0.762   0.339 -0.5383 -0.3364 -0.0505
  394TIP3    H1 1611   2.703   0.673   0.364 -1.2028 -0.4699 -1.0908
  394TIP3    H2 1612   2.822   0.765   0.344 -0.6532 -0.2395  2.8106
  395TIP3   OH2 1613   3.789   1.220   0.035  0.1949  0.0044 -1.1742
  395TIP3    H1 1614   3.817   1.302  -0.006 -1.1069 -0.1769 -2.4489
  395TIP3    H2 1615   3.694   1.229   0.045  0.2605 -0.6701  0.2304
  396TIP3   OH2 1616   2.450   4.626   5.045 -0.0055 -0.1252 -0.2884
  396TIP3    H1 1617   2.431   4.697   5.106 -1.1660 -1.5574  1.0433
  396TIP3    H2 1618   2.538   4.597   5.068 -1.4333 -2.4385  2.5627
  397TIP3   OH2 1619   1.162   5.123   0.963  0.0517  1.0454 -0.6270
  397TIP3    H1 1620   1.253   5.130   0.933 -0.0818  1.4325 -0.9341
  397TIP3    H2 1621   1.169   5.084   1.050  0.4462  0.0578 -1.0886
  398TIP3   OH2 1622   1.717   2.600   1.807 -0.0570 -0.0826 -0.6395
  398TIP3    H1 1623   1.664   2.535   1.854  1.2990 -1.7916 -1.3917
  398TIP3    H2 1624   1.807   2.572   1.823  0.6350  2.5033  0.2445
  399TIP3   OH2 1625   2.901   2.666   5.717 -0.4555 -0.3056  0.4125
  399TIP3    H1 1626   2.941   2.719   5.786 -1.3476 -1.5904  1.9735
  399TIP3    H2 1627   2.969   2.602   5.694 -0.6205 -0.7423  1.1023
  400TIP3   OH2 1628   4.978   0.585   1.221  0.5366 -0.1800 -0.6151
  400TIP3    H1 1629   5.017   0.568   1.135  1.3477  1.7660 -0.6548
  400TIP3    H2 1630   5.042   0.551   1.284  1.4008  1.1980 -0.7284
  401TIP3   OH2 1631   4.205   5.422   1.379  0.2691  0.2192  0.1316
  401TIP3    H1 1632   4.112   5.445   1.376  0.6441  1.7058 -0.9649
  401TIP3    H2 1633   4.237   5.462   1.459  0.2820  1.0530 -0.2784
  402TIP3   OH2 1634   1.669   3.265   0.039  0.1893 -0.3325 -0.5060
  402TIP3    H1 1635   1.615   3.260   0.118 -0.1595  1.0516 -0.6321
  402TIP3    H2 1636   1.757   3.284   0.072  0.5129 -2.0799 -0.3298
  403TIP3   OH2 1637   3.733   5.600   2.291 -0.6460 -0.2867  0.6391
  403TIP3    H1 1638   3.681   5.638   2.220  2.0823 -1.9839 -2.3834
  403TIP3    H2 1639   3.812   5.655   2.296  0.3861 -1.7337  0.5700
  404TIP3   OH2 1640   1.262   3.370   3.180 -0.2201 -0.0940 -0.2054
  404TIP3    H1 1641   1.212   3.289   3.187  2.0179 -1.2983  2.5670
  404TIP3    H2 1642   1.311   3.361   3.099  1.4791 -2.4019  1.0333
  405TIP3   OH2 1643   1.958   3.042   0.206 -0.6420  0.2219  0.3639
  405TIP3    H1 1644   1.998   2.961   0.173 -1.7358  0.1131 -0.7202
  405TIP3    H2 1645   1.908   3.015   0.283  0.2985  0.1474  0.9642
  406TIP3   OH2 1646   2.947   1.863   1.718  0.0476 -0.4619 -0.4548
  406TIP3    H1 1647   2.983   1.951   1.706  0.0945 -0.3077  0.6775
  406TIP3    H2 1648   3.015   1.804   1.686  0.6202 -0.1187  0.1083
  407TIP3   OH2 1649   0.129   2.749   5.284  0.4335 -0.8763 -0.2172
  407TIP3    H1 1650   0.120   2.662   5.245 -1.7668 -0.4067 -0.7869
  407TIP3    H2 1651   0.104   2.737   5.376  3.5595 -1.5363  0.6196
  408TIP3   OH2 1652   2.286   1.587   1.420  0.8415 -0.8013  0.3567
  408TIP3    H1 1653   2.236   1.615   1.343  0.7345  1.8784  1.3272
  408TIP3    H2 1654   2.219   1.570   1.487  1.0081 -1.7005  0.2978
  409TIP3   OH2 1655   0.855   0.706   5.124  0.3048 -0.6593 -0.2311
  409TIP3    H1 1656   0.896   0.648   5.060  1.2207  0.0404 -0.2878
  409TIP3    H2 1657   0.852   0.792   5.081  2.0020  0.0813  1.0845
  410TIP3   OH2 1658   1.502   0.440   5.492 -0.6017 -0.3579 -0.0172
  410TIP3    H1 1659   1.449   0.456   5.571 -1.0426  0.4292 -0.4654
  410TIP3    H2 1660   1.437   0.421   5.424 -0.1790 -1.8984  0.0050
  411TIP3   OH2 1661   2.425   1.134   0.357 -0.2772  0.0506 -0.1192
  411TIP3    H1 1662   2.391   1.063   0.302 -3.0627  1.8427 -0.8341
  411TIP3    H2 1663   2.487   1.091   0.416 -0.5286 -2.6562 -1.7226
  412TIP3   OH2 1664   5.268   1.015   0.519  0.3393 -0.2843 -0.8408
  412TIP3    H1 1665   5.314   1.098   0.511 -0.1991  0.0905 -0.1031
  412TIP3    H2 1666   5.177   1.036   0.496  0.4760 -0.9656 -2.0581
  413TIP3   OH2 1667   1.274   4.206   0.233 -0.6462  0.1702 -0.5668
  413TIP3    H1 1668   1.369   4.208   0.243 -0.7957 -0.0595  0.9932
  413TIP3    H2 1669   1.260   4.163   0.148  0.6852  2.2194 -1.8604
  414TIP3   OH2 1670   1.312   3.261   0.768 -0.0604  0.0769  0.4030
  414TIP3    H1 1671   1.356   3.330   0.817 -0.0732 -0.2629  0.9090
  414TIP3    H2 1672   1.333   3.278   0.676 -0.3648  0.9544  0.4979
  415TIP3   OH2 1673   1.711   2.545   0.970  0.1912  1.2001  0.0121
  415TIP3    H1 1674   1.706   2.611   1.039  0.3627  2.6106 -1.2901
  415TIP3    H2 1675   1.629   2.554   0.922 -0.0603  0.0208  0.2091
  416TIP3   OH2 1676   2.443   2.411   4.502 -0.0556 -0.4829  0.5433
  416TIP3    H1 1677   2.454   2.321   4.535 -0.1114 -1.2995 -1.5721
  416TIP3    H2 1678   2.350   2.429   4.513 -0.4000 -1.4007 -0.7353
  417TIP3   OH2 1679   2.163   3.933   0.250  0.5875  0.1481 -0.1039
  417TIP3    H1 1680   2.119   3.999   0.304 -0.2338  0.1821 -0.8006
  417TIP3    H2 1681   2.097   3.865   0.237  1.3187 -0.6528  0.3160
  418TIP3   OH2 1682   1.747   2.635   0.519  0.4591  0.2651 -0.1307
  418TIP3    H1 1683   1.780   2.577   0.587 -1.0790 -0.9386 -0.3865
  418TIP3    H2 1684   1.784   2.601   0.438 -0.2468 -0.2292 -0.2518
  419TIP3   OH2 1685   2.286   1.510   0.970 -0.3394 -0.3247 -0.0097
  419TIP3    H1 1686   2.351   1.503   0.900 -1.2929 -1.0335 -0.8286
  419TIP3    H2 1687   2.298   1.431   1.022 -1.3129 -0.9999 -0.8175
  420TIP3   OH2 1688   1.679   2.216   0.030  0.6087  0.0214 -0.1067
  420TIP3    H1 1689   1.690   2.169   0.113 -0.6238  1.5014  0.9123
  420TIP3    H2 1690   1.599   2.181  -0.008 -0.8802  1.9781  1.1506
  421TIP3   OH2 1691   4.601   3.497   0.631 -0.4059 -0.4145 -0.1960
  421TIP3    H1 1692   4.632   3.581   0.598 -0.0328 -0.5137 -0.1069
  421TIP3    H2 1693   4.616   3.502   0.726 -1.0362 -0.3092 -0.1024
  422TIP3   OH2 1694   4.905   2.378   1.859  0.0120  0.1540  0.2264
  422TIP3    H1 1695   4.828   2.363   1.803  1.0101 -1.9961 -0.6324
  422TIP3    H2 1696   4.954   2.296   1.854  2.2336  1.3996  0.9673
  423TIP3   OH2 1697   0.855   0.736   1.076  0.0541  0.0802 -0.5472
  423TIP3    H1 1698   0.876   0.643   1.071  0.6965  0.2017 -0.1932
  423TIP3    H2 1699   0.861   0.757   1.169 -0.5454  0.3753 -0.5677
  424TIP3   OH2 1700   1.951   2.771   5.280  0.6446  0.2214 -0.8429
  424TIP3    H1 1701   2.007   2.843   5.308 -0.7134  1.6474 -1.6697
  424TIP3    H2 1702   1.946   2.780   5.185  0.1354 -0.7168 -0.9154
  425TIP3   OH2 1703   0.378   1.691   3.546  0.3716  0.4662  0.3869
  425TIP3    H1 1704   0.336   1.670   3.629 -1.2788  0.3809 -0.4426
  425TIP3    H2 1705   0.460   1.640   3.547 -1.1275 -2.0345  0.6269
  426TIP3   OH2 1706   1.888   2.511   1.476 -0.5831 -0.0220 -0.1750
  426TIP3    H1 1707   1.919   2.516   1.567 -2.0256  0.8807  0.2786
  426TIP3    H2 1708   1.924   2.429   1.443  1.5404  0.5550  0.6098
  427TIP3   OH2 1709   2.228   3.047   0.045  0.2730 -0.0452 -0.3992
  427TIP3    H1 1710   2.185   3.125   0.080 -0.1885 -1.6982  2.8552
  427TIP3    H2 1711   2.321   3.064   0.055  0.2565  1.1502 -2.1315
  428TIP3   OH2 1712   3.756   0.563   1.242 -0.5536 -0.2735 -0.2864
  428TIP3    H1 1713   3.769   0.615   1.163 -1.2821  0.7792  0.2772
  428TIP3    H2 1714   3.842   0.563   1.284  0.0551 -1.5532 -1.4962
  429TIP3   OH2 1715   5.821   4.669   1.160 -0.3565 -0.1093 -0.0013
  429TIP3    H1 1716   5.819   4.630   1.248  1.8558  0.5321  0.3673
  429TIP3    H2 1717   5.911   4.702   1.151 -1.0757  1.4097 -1.8207
  430TIP3   OH2 1718   4.918   1.807   2.025  0.1915 -0.5380  0.0281
  430TIP3    H1 1719   4.864   1.795   2.103  0.5044  0.9686  0.4900
  430TIP3    H2 1720   4.994   1.858   2.055  0.2497  0.1765 -1.2685
  431TIP3   OH2 1721   3.779   5.481   1.294  0.2309 -0.1537 -0.3418
  431TIP3    H1 1722   3.832   5.535   1.236  0.6505  1.5575  1.5647
  431TIP3    H2 1723   3.836   5.463   1.369 -0.9411 -0.6491  0.4518
  432TIP3   OH2 1724   5.367   5.843   5.878  0.9269 -0.1850 -0.2563
  432TIP3    H1 1725   5.388   5.793   5.956  0.6375 -1.3310 -0.9074
  432TIP3    H2 1726   5.422   5.806   5.809  0.9812  0.6343 -0.6641
  433TIP3   OH2 1727   2.896   1.619   5.346 -0.0332  0.1364  0.1557
  433TIP3    H1 1728   2.962   1.568   5.300 -0.2472 -0.3139  0.3441
  433TIP3    H2 1729   2.847   1.555   5.397 -0.0980  0.5680  0.6440
  434TIP3   OH2 1730   0.617   1.104   1.098 -0.1016  0.2524  0.5884
  434TIP3    H1 1731   0.551   1.168   1.072  0.0043 -0.1254 -0.6366
  434TIP3    H2 1732   0.632   1.051   1.019 -0.5712 -1.6301  1.7295
  435TIP3   OH2 1733   4.353   2.305   6.093  0.3149  0.0637 -0.6781
  435TIP3    H1 1734   4.279   2.245   6.101 -0.1263  0.6290 -0.4746
  435TIP3    H2 1735   4.412   2.279   6.164  0.2664 -0.3179 -0.7750
  436TIP3   OH2 1736   4.030   5.224   4.688 -0.2616  0.0154 -0.1832
  436TIP3    H1 1737   3.971   5.256   4.756  0.0487  0.0564  0.0657
  436TIP3    H2 1738   4.012   5.130   4.684  0.4931 -0.1766  0.7177
  437TIP3   OH2 1739   5.067   2.948   5.489  0.0246  1.0302 -0.2769
  437TIP3    H1 1740   5.050   3.036   5.521 -0.0938  0.7562  0.4248
  437TIP3    H2 1741   4.985   2.919   5.450  0.1026  1.2836 -0.6221
  438TIP3   OH2 1742   1.301   0.890   0.431  0.0927 -0.3457 -0.0655
  438TIP3    H1 1743   1.289   0.921   0.521  0.4394  3.1257 -1.1293
  438TIP3    H2 1744   1.366   0.821   0.438 -1.4637 -1.6379  2.5842
  439TIP3   OH2 1745   4.607   1.189   0.253  0.1768  0.0949 -0.3994
  439TIP3    H1 1746   4.617   1.284   0.253  0.1643  0.1356 -3.0949
  439TIP3    H2 1747   4.690   1.155   0.219  0.0760 -0.8554  0.2569
  440TIP3   OH2 1748   3.689   0.218   5.974 -1.0447  0.1150  0.3613
  440TIP3    H1 1749   3.781   0.227   5.998 -0.8822  0.8105 -0.4898
  440TIP3    H2 1750   3.687   0.149   5.907 -0.9010  1.2827 -0.8771
  441TIP3   OH2 1751   5.408   5.755   2.972 -0.1852 -0.1355  0.3434
  441TIP3    H1 1752   5.470   5.711   2.915  0.7691  0.2805  1.0599
  441TIP3    H2 1753   5.340   5.690   2.989 -0.9679  0.0406 -2.0347
  442TIP3   OH2 1754   6.024   0.574   0.230 -0.2578 -0.3869 -0.2117
  442TIP3    H1 1755   6.083   0.637   0.188  1.0633 -1.1623  0.4694
  442TIP3    H2 1756   5.964   0.628   0.281 -0.5468  0.4453 -1.3852
  443TIP3   OH2 1757   3.311   5.667   1.559 -0.1119 -0.0198 -0.6000
  443TIP3    H1 1758   3.335   5.666   1.652  0.0286  0.9527 -0.6143
  443TIP3    H2 1759   3.391   5.642   1.513  0.4167  1.5130 -0.5548
  444TIP3   OH2 1760   4.076   3.382   4.498 -0.2420 -0.3703 -0.2900
  444TIP3    H1 1761   4.134   3.306   4.503  0.1738 -0.0740 -0.5397
  444TIP3    H2 1762   4.106   3.439   4.569  0.7867  0.4754 -1.3781
  445TIP3   OH2 1763   3.727   6.029   1.176  0.3022 -0.4297 -0.2389
  445TIP3    H1 1764   3.666   6.055   1.244  0.0187 -0.8851 -0.3170
  445TIP3    H2 1765   3.719   5.934   1.172  1.2221 -0.5219 -0.0493
  446TIP3   OH2 1766   5.981   2.504   0.729 -0.3129  0.3238  0.3239
  446TIP3    H1 1767   5.968   2.597   0.746 -1.6739  0.1207  0.4472
  446TIP3    H2 1768   5.940   2.460   0.804  0.2219 -0.3793  0.2112
  447TIP3   OH2 1769   3.393   0.925   0.082  0.7450 -0.1041 -0.3140
  447TIP3    H1 1770   3.473   0.932   0.133 -0.9200  1.0901  2.2272
  447TIP3    H2 1771   3.374   0.832   0.079  0.6059 -0.1575  1.7253
  448TIP3   OH2 1772   1.420   5.515   2.098 -0.3961  0.2614 -0.5261
  448TIP3    H1 1773   1.429   5.610   2.088  1.2818 -0.0221 -1.9060
  448TIP3    H2 1774   1.455   5.479   2.017  2.8772 -1.7119  1.6153
  449TIP3   OH2 1775   5.524   4.016   3.231 -0.3241  0.4804  0.0392
  449TIP3    H1 1776   5.494   4.071   3.159  0.9272 -0.6156 -1.3406
  449TIP3    H2 1777   5.503   3.927   3.204 -0.4657  0.1003  1.3450
  450TIP3   OH2 1778   4.513   5.399   0.739  0.0096  0.3622  0.6090
  450TIP3    H1 1779   4.518   5.483   0.786  0.5855  0.7986 -0.2186
  450TIP3    H2 1780   4.505   5.423   0.647  0.7455 -0.4848  0.3100
  451TIP3   OH2 1781   0.444   5.809   4.096  0.1317  0.0844 -0.6181
  451TIP3    H1 1782   0.479   5.755   4.025 -0.1755 -1.2936  0.2503
  451TIP3    H2 1783   0.520   5.855   4.130  0.9012 -1.8258  0.3458
  452TIP3   OH2 1784   2.881   5.736   1.357 -0.1295  0.4297 -0.2960
  452TIP3    H1 1785   2.948   5.671   1.337  0.4098  0.8416  0.1678
  452TIP3    H2 1786   2.845   5.708   1.441 -0.7179  0.0670 -0.6621
  453TIP3   OH2 1787   5.171   0.385   2.664 -0.5371 -0.1022 -0.4281
  453TIP3    H1 1788   5.126   0.388   2.579 -0.1975 -0.0960 -0.6105
  453TIP3    H2 1789   5.101   0.395   2.729 -0.7393  0.4100 -0.7228
  454TIP3   OH2 1790   5.421   2.063   1.346  0.1997  0.0751 -0.1117
  454TIP3    H1 1791   5.479   1.987   1.355 -1.0816 -0.7840  1.2522
  454TIP3    H2 1792   5.347   2.030   1.295 -1.3138 -0.1880  2.1709
  455TIP3   OH2 1793   3.825   2.560   2.093 -0.6208 -0.4583 -0.4551
  455TIP3    H1 1794   3.792   2.480   2.134  0.3565 -0.6679 -0.0676
  455TIP3    H2 1795   3.919   2.562   2.115 -0.6549  0.8468 -0.3738
  456TIP3   OH2 1796   1.147   1.725   1.532  0.3837 -0.1694  0.1730
  456TIP3    H1 1797   1.157   1.813   1.569  0.3674 -0.4905  0.9453
  456TIP3    H2 1798   1.057   1.722   1.502  0.0632 -0.3052  1.1448
  457TIP3   OH2 1799   4.280   5.642   5.865  0.5233 -0.2510  0.6053
  457TIP3    H1 1800   4.304   5.734   5.871  0.0056 -0.1021  0.3235
  457TIP3    H2 1801   4.331   5.608   5.791 -0.4406  0.1622 -0.2541
  458TIP3   OH2 1802   1.474   0.093   0.672 -0.6122  0.3535  0.2224
  458TIP3    H1 1803   1.516   0.078   0.588 -0.4486  0.6868  0.2445
  458TIP3    H2 1804   1.495   0.184   0.694 -1.0309  0.4062  0.4093
  459TIP3   OH2 1805   3.592   2.009   5.154 -0.2117 -0.5957  0.1455
  459TIP3    H1 1806   3.607   2.007   5.060 -0.1657  0.7477  0.1195
  459TIP3    H2 1807   3.671   1.970   5.192 -0.6951 -2.1726 -0.3992
  460TIP3   OH2 1808   3.743   0.367   3.954  0.1143 -0.2113  0.2076
  460TIP3    H1 1809   3.657   0.367   3.996  0.2109 -1.5217  0.4463
  460TIP3    H2 1810   3.799   0.418   4.012 -0.4546  0.4584  0.1640
  461TIP3   OH2 1811   2.852   0.294   5.826  0.0908 -0.0974 -0.0047
  461TIP3    H1 1812   2.900   0.255   5.753 -1.1200 -0.7610 -0.4527
  461TIP3    H2 1813   2.760   0.289   5.800 -0.2201  1.3919  0.7384
  462TIP3   OH2 1814   3.620   2.254   0.166 -0.3956  0.6205  0.4178
  462TIP3    H1 1815   3.711   2.266   0.193  0.2919 -2.2263 -0.5201
  462TIP3    H2 1816   3.621   2.269   0.071 -0.0513 -3.5057 -0.3071
  463TIP3   OH2 1817   2.843   0.859   1.138 -0.2240  0.1187  0.1661
  463TIP3    H1 1818   2.891   0.906   1.070  0.2008 -1.9661 -1.0519
  463TIP3    H2 1819   2.905   0.853   1.211  0.2644  0.1503 -0.2408
  464TIP3   OH2 1820   3.108   1.869   1.293 -0.1505 -0.2694 -0.5051
  464TIP3    H1 1821   3.028   1.896   1.338  1.1261 -0.2496  1.8992
  464TIP3    H2 1822   3.107   1.774   1.296  1.0329 -0.2530  1.7300
  465TIP3   OH2 1823   2.926   5.543   2.415 -0.2814 -0.2863  0.6039
  465TIP3    H1 1824   2.841   5.532   2.373  0.0393  0.3458 -0.2168
  465TIP3    H2 1825   2.912   5.511   2.504 -1.2002 -0.8063  0.2882
  466TIP3   OH2 1826   3.847   3.940   1.713 -0.3469 -0.5275 -0.1245
  466TIP3    H1 1827   3.877   3.850   1.701  1.9237  0.2292 -0.3302
  466TIP3    H2 1828   3.797   3.959   1.633 -0.7218 -1.5437 -0.1414
  467TIP3   OH2 1829   3.877   1.523   1.342  0.3932  0.2923  0.1040
  467TIP3    H1 1830   3.929   1.578   1.282  0.9693 -1.6951 -1.2786
  467TIP3    H2 1831   3.804   1.492   1.288 -0.8892  1.0543  1.3574
  468TIP3   OH2 1832   5.305   1.125   5.965 -0.2887  0.2071  0.7653
  468TIP3    H1 1833   5.380   1.180   5.944  0.2776  0.0810  2.3702
  468TIP3    H2 1834   5.344   1.048   6.007 -1.0631 -1.4111 -1.3722
  469TIP3   OH2 1835   3.389   1.664   2.482  0.7464 -0.3747 -0.1280
  469TIP3    H1 1836   3.401   1.574   2.513 -0.0095  0.0797  1.5392
  469TIP3    H2 1837   3.295   1.680   2.490  1.2520  1.6296  2.7431
  470TIP3   OH2 1838   3.886   0.168   0.692  0.1057  0.2352 -0.1534
  470TIP3    H1 1839   3.935   0.166   0.775  1.3682  1.1420 -0.8614
  470TIP3    H2 1840   3.902   0.081   0.654  0.2054  0.1147  0.1574
  471TIP3   OH2 1841   3.260   0.088   5.161 -0.3414  0.5450 -0.1036
  471TIP3    H1 1842   3.267   0.149   5.088  0.3025  0.2467 -0.2996
  471TIP3    H2 1843   3.348   0.086   5.199  0.2862 -1.9804 -1.5081
  472TIP3   OH2 1844   3.304   1.043   2.648  0.5287 -0.5137  0.1494
  472TIP3    H1 1845   3.329   1.053   2.556 -1.8869  2.7099 -0.2130
  472TIP3    H2 1846   3.388   1.040   2.695  1.7723 -1.2905 -2.0430
  473TIP3   OH2 1847   4.367   2.984   1.735 -0.0993 -0.0601  0.5249
  473TIP3    H1 1848   4.355   2.910   1.675 -1.3944 -0.9272  1.8197
  473TIP3    H2 1849   4.320   3.056   1.694  0.2900 -0.2298 -0.2357
  474TIP3   OH2 1850   3.451   0.345   0.799  0.3880 -0.1988 -0.0609
  474TIP3    H1 1851   3.469   0.252   0.792 -0.3771 -0.2837 -0.9404
  474TIP3    H2 1852   3.357   0.353   0.782  0.6545  0.8410 -1.1299
  475TIP3   OH2 1853   0.304   0.221   2.583 -0.1495 -0.1579 -0.1807
  475TIP3    H1 1854   0.227   0.261   2.543 -0.2270 -0.5312 -0.4115
  475TIP3    H2 1855   0.274   0.134   2.611 -0.3091  0.3953  1.4039
  476TIP3   OH2 1856   1.255   5.151   1.261 -0.4726  0.8426  0.4183
  476TIP3    H1 1857   1.161   5.138   1.256 -0.4323  0.7073 -0.0889
  476TIP3    H2 1858   1.269   5.201   1.341 -0.8519 -0.2497  1.1768
  477TIP3   OH2 1859   5.974   2.275   6.032 -0.4004  0.7531 -0.0021
  477TIP3    H1 1860   5.945   2.196   5.987  1.5161  0.0220 -0.0094
  477TIP3    H2 1861   5.894   2.314   6.067 -1.5317 -0.3575 -1.3346
  478TIP3   OH2 1862   5.689   1.036   3.101 -0.1593  0.0263 -0.1993
  478TIP3    H1 1863   5.743   1.001   3.031  0.7068  0.6147  0.1703
  478TIP3    H2 1864   5.749   1.086   3.156 -1.3503  1.9517 -0.6052
  479TIP3   OH2 1865   1.435   4.735   4.776  0.1579 -0.2582 -0.3530
  479TIP3    H1 1866   1.382   4.745   4.697 -1.0747 -0.4082  0.4377
  479TIP3    H2 1867   1.486   4.656   4.762 -0.4692 -0.5880 -0.7619
  480TIP3   OH2 1868   3.135   3.492   5.084 -0.0284 -0.9655 -0.1674
  480TIP3    H1 1869   3.056   3.440   5.098 -1.8043  1.6277 -0.3762
  480TIP3    H2 1870   3.112   3.554   5.015  2.8910 -1.5925 -1.7846
  481TIP3   OH2 1871   0.571   1.206   4.074 -0.0624 -0.4581 -0.0957
  481TIP3    H1 1872   0.530   1.291   4.085 -1.6552 -1.4299  1.7241
  481TIP3    H2 1873   0.581   1.196   3.979 -0.3611  1.4949 -0.3443
  482TIP3   OH2 1874   3.270   1.663   0.933 -0.1915  0.6971 -0.4294
  482TIP3    H1 1875   3.269   1.751   0.971  3.3365  0.2888  0.7304
  482TIP3    H2 1876   3.288   1.605   1.006  1.9249 -0.5541 -1.8829
  483TIP3   OH2 1877   0.733   1.328   0.091 -0.0595  0.0378 -0.6635
  483TIP3    H1 1878   0.752   1.311  -0.001  1.2936  0.1423 -0.4083
  483TIP3    H2 1879   0.770   1.253   0.138  1.7211  1.3023  0.0295
  484TIP3   OH2 1880   3.618   4.541   5.435 -0.8182 -0.3768  0.1986
  484TIP3    H1 1881   3.630   4.577   5.523 -2.0538 -0.6229  0.4768
  484TIP3    H2 1882   3.681   4.468   5.431  2.2395  2.1933 -0.6415
  485TIP3   OH2 1883   4.831   1.043   2.451 -0.3910 -0.2961 -0.2356
  485TIP3    H1 1884   4.782   0.982   2.397  1.4116 -1.8088 -0.1863
  485TIP3    H2 1885   4.886   1.091   2.389  1.6034 -1.9623  0.1813
  486TIP3   OH2 1886   1.119   0.698   0.268 -0.1741 -0.1794  0.0657
  486TIP3    H1 1887   1.192   0.730   0.320 -0.1322 -0.3359  0.1029
  486TIP3    H2 1888   1.054   0.668   0.332 -1.6034  2.8519  0.1105
  487TIP3   OH2 1889   4.135   5.826   0.655 -0.2165 -0.3818  0.1917
  487TIP3    H1 1890   4.082   5.748   0.637  1.8201 -1.5999 -0.6551
  487TIP3    H2 1891   4.162   5.817   0.746  0.2721 -0.8306  0.0044
  488TIP3   OH2 1892   2.756   6.038   3.498 -0.6535  0.3747 -0.2694
  488TIP3    H1 1893   2.702   6.117   3.499 -0.1984  0.8001 -3.0859
  488TIP3    H2 1894   2.842   6.069   3.468 -0.9010 -1.3953 -2.9516
  489TIP3   OH2 1895   4.043   5.839   5.150  0.7054  0.7432 -0.0294
  489TIP3    H1 1896   4.047   5.744   5.143  1.3725  0.8811 -1.7586
  489TIP3    H2 1897   4.135   5.866   5.157  0.5982  1.3324 -0.8045
  490TIP3   OH2 1898   4.384   0.574   5.257 -0.5958  0.3681 -0.0653
  490TIP3    H1 1899   4.393   0.653   5.204 -0.9608  0.9656  0.7590
  490TIP3    H2 1900   4.318   0.522   5.211 -0.0468  0.3325 -0.8415
  491TIP3   OH2 1901   4.359   5.840   5.622 -0.3108 -0.0849 -0.1439
  491TIP3    H1 1902   4.424   5.862   5.687 -2.8786 -2.6327  3.4975
  491TIP3    H2 1903   4.374   5.748   5.602 -2.4717 -0.5974  0.4221
  492TIP3   OH2 1904   4.584   5.466   5.219  0.2987  0.2841  0.1882
  492TIP3    H1 1905   4.608   5.530   5.151  0.1514  1.3902  1.1479
  492TIP3    H2 1906   4.502   5.427   5.187 -0.3830  1.6109  0.2383
  493TIP3   OH2 1907   4.874   5.623   1.922  0.3683  0.3395  1.0468
  493TIP3    H1 1908   4.858   5.660   1.835  1.1897  0.6490  1.0208
  493TIP3    H2 1909   4.795   5.574   1.942  0.4845 -0.4014 -0.2345
  494TIP3   OH2 1910   2.443   5.124   5.060 -0.3261 -0.4754  0.0969
  494TIP3    H1 1911   2.457   5.189   4.991 -2.9892 -2.1756 -2.1925
  494TIP3    H2 1912   2.495   5.049   5.032 -0.4844 -0.7573  0.5583
  495TIP3   OH2 1913   3.321   1.477   5.907  0.2005 -0.4590  0.1276
  495TIP3    H1 1914   3.278   1.414   5.849  0.6863 -0.9799  0.3251
  495TIP3    H2 1915   3.281   1.461   5.993  0.7815 -0.9404  0.3097
  496TIP3   OH2 1916   4.312   0.120   0.806 -0.3372  0.2817  0.0637
  496TIP3    H1 1917   4.291   0.193   0.863  2.0773  0.8398  0.3034
  496TIP3    H2 1918   4.286   0.042   0.856 -0.4826  0.8594  0.8970
  497TIP3   OH2 1919   3.862   0.865   5.087 -0.2122 -0.5349 -0.3984
  497TIP3    H1 1920   3.919   0.919   5.032  1.2625 -0.7077  0.9285
  497TIP3    H2 1921   3.834   0.923   5.158 -1.8391 -0.4059 -1.1277
  498TIP3   OH2 1922   0.552   5.390   4.804 -0.3274 -0.4186  0.3018
  498TIP3    H1 1923   0.585   5.302   4.788  0.1582 -0.5883  2.1744
  498TIP3    H2 1924   0.466   5.392   4.763  0.7325 -0.8982 -2.0811
  499TIP3   OH2 1925   3.565   0.444   6.054 -0.2296  0.0850 -0.0955
  499TIP3    H1 1926   3.535   0.418   6.141 -0.6197 -1.7547 -0.7572
  499TIP3    H2 1927   3.604   0.365   6.017  2.1690  1.4758 -0.6717
  500TIP3   OH2 1928   0.182   0.466   6.072  0.1795  0.5590 -0.0488
  500TIP3    H1 1929   0.179   0.545   6.126 -1.9134  1.4242 -1.3887
  500TIP3    H2 1930   0.274   0.460   6.044  1.2615  0.2603  3.2624
  501TIP3   OH2 1931   0.196   0.723   1.611  0.2207 -0.2902 -0.1245
  501TIP3    H1 1932   0.229   0.746   1.524  0.6990  1.0355  0.3902
  501TIP3    H2 1933   0.209   0.803   1.663 -1.4424 -0.5806  0.7597
  502TIP3   OH2 1934   3.224   3.133   4.776 -1.2330  0.5081  0.0109
  502TIP3    H1 1935   3.261   3.196   4.839 -0.4023 -1.0022  1.0486
  502TIP3    H2 1936   3.280   3.141   4.699  0.0715 -0.3353  0.8519
  503TIP3   OH2 1937   5.224   2.833   5.006  0.2546  0.3745  0.6943
  503TIP3    H1 1938   5.285   2.840   4.933  0.0642  0.4366  0.5395
  503TIP3    H2 1939   5.274   2.863   5.082  0.5317  0.0689  0.6363
  504TIP3   OH2 1940   2.449   1.719   5.857 -0.3197 -0.1605  0.5468
  504TIP3    H1 1941   2.453   1.748   5.766 -3.2150 -0.8485  0.1559
  504TIP3    H2 1942   2.397   1.785   5.902  0.9618  0.0940  1.6892
  505TIP3   OH2 1943   5.112   5.090   5.659 -0.0472  0.0222 -0.1631
  505TIP3    H1 1944   5.124   5.113   5.567  0.0890 -0.7078 -0.3353
  505TIP3    H2 1945   5.020   5.111   5.678 -0.4339 -1.0206 -0.8271
  506TIP3   OH2 1946   3.749   2.594   0.453  0.3424 -0.3036  0.2908
  506TIP3    H1 1947   3.703   2.655   0.396 -0.4385 -0.1704  1.0587
  506TIP3    H2 1948   3.695   2.588   0.531  0.4398 -1.9167  0.2610
  507TIP3   OH2 1949   5.461   2.280   1.537  0.7917 -0.3228  0.1150
  507TIP3    H1 1950   5.413   2.291   1.620 -2.0879  1.1370 -1.6343
  507TIP3    H2 1951   5.407   2.219   1.487  0.9375  1.0390 -1.7520
  508TIP3   OH2 1952   3.410   1.782   0.218 -0.1875 -0.0173  0.0557
  508TIP3    H1 1953   3.450   1.868   0.228 -0.8509  0.1424  1.5244
  508TIP3    H2 1954   3.352   1.791   0.143 -0.6739  1.0033  0.5331
  509TIP3   OH2 1955   4.999   1.402   1.735 -0.2643  0.2920 -0.5110
  509TIP3    H1 1956   4.953   1.451   1.667 -2.2129 -0.5927  0.1257
  509TIP3    H2 1957   5.077   1.367   1.691 -0.3607  1.5513 -1.7078
  510TIP3   OH2 1958   0.275   1.339   0.281  0.4721 -0.0558 -0.3929
  510TIP3    H1 1959   0.262   1.245   0.293  2.8363 -0.5227 -1.1361
  510TIP3    H2 1960   0.322   1.347   0.198  0.0751  1.8090 -0.4804
  511TIP3   OH2 1961   1.829   0.173   3.667  0.0854 -0.2693 -0.4731
  511TIP3    H1 1962   1.811   0.079   3.668 -1.2404 -0.0265 -0.3700
  511TIP3    H2 1963   1.791   0.205   3.749  0.5470  0.3599 -0.5042
  512TIP3   OH2 1964   4.334   2.045   1.323 -0.0869  0.2032 -0.2308
  512TIP3    H1 1965   4.277   2.110   1.281  1.2401  1.3766 -0.2719
  512TIP3    H2 1966   4.302   1.961   1.292 -0.7304  0.9291 -1.5895
  513TIP3   OH2 1967   4.615   1.405   2.135  0.5111 -0.1580 -0.3135
  513TIP3    H1 1968   4.681   1.336   2.135 -0.7845 -1.4225  1.0773
  513TIP3    H2 1969   4.575   1.401   2.222 -1.4992  0.4721 -1.1665
  514TIP3   OH2 1970   4.835   2.634   0.160  0.6080 -0.3970  0.3927
  514TIP3    H1 1971   4.782   2.556   0.142 -0.1302  0.1692  0.0687
  514TIP3    H2 1972   4.814   2.657   0.250  0.1280 -0.0475  0.1956
  515TIP3   OH2 1973   3.668   0.929   0.144  0.4714 -0.6422 -0.3045
  515TIP3    H1 1974   3.723   0.990   0.093  0.7425  0.2429  1.0125
  515TIP3    H2 1975   3.675   0.846   0.097  0.8436  0.1086 -1.6224
  516TIP3   OH2 1976   0.760   1.280   1.554  0.5160 -0.7060  0.2083
  516TIP3    H1 1977   0.811   1.316   1.482 -0.2560 -0.0817 -0.0338
  516TIP3    H2 1978   0.717   1.204   1.517  0.5673 -0.7162  0.1685
  517TIP3   OH2 1979   3.949   2.393   2.733  0.4054  0.5440 -0.4361
  517TIP3    H1 1980   3.862   2.354   2.747 -0.1746  1.6077 -0.9755
  517TIP3    H2 1981   4.006   2.319   2.714 -0.2404 -0.2339  0.6146
  518TIP3   OH2 1982   4.599   1.958   5.121 -0.0351 -0.9465  0.3989
  518TIP3    H1 1983   4.520   1.905   5.105 -0.3903 -0.3119  0.0331
  518TIP3    H2 1984   4.585   2.037   5.069  0.5783 -0.5745  0.8054
  519TIP3   OH2 1985   0.349   2.199   3.317 -1.0481  0.2220  0.1940
  519TIP3    H1 1986   0.378   2.128   3.375 -1.4362 -1.0287 -1.1271
  519TIP3    H2 1987   0.416   2.202   3.248 -0.9184  1.2925  0.3665
  520TIP3   OH2 1988   4.930   1.918   1.767  0.1744  0.6368 -0.1965
  520TIP3    H1 1989   4.940   1.860   1.843  3.9634  1.6416  0.1364
  520TIP3    H2 1990   4.888   1.863   1.701 -1.9349 -0.6692  2.1137
  521TIP3   OH2 1991   5.399   2.881   0.200  0.0231 -0.5587  0.2446
  521TIP3    H1 1992   5.327   2.834   0.159  0.1008 -0.7280  0.2999
  521TIP3    H2 1993   5.435   2.819   0.263 -0.7602  0.0775  1.3260
  522TIP3   OH2 1994   3.260   0.446   5.764  0.3082 -0.5997  0.0416
  522TIP3    H1 1995   3.311   0.383   5.712 -1.6737 -1.7494 -0.5409
  522TIP3    H2 1996   3.278   0.421   5.855  3.4367  1.1389 -0.0146
  523TIP3   OH2 1997   3.915   2.036   0.113  0.3163  0.3613 -1.0139
  523TIP3    H1 1998   3.826   2.020   0.083  0.7514 -1.1232 -1.5361
  523TIP3    H2 1999   3.909   2.034   0.209 -0.9909  4.6926 -0.9047
  524TIP3   OH2 2000   5.516   2.475   1.343  0.4678  0.1445 -0.0432
  524TIP3    H1 2001   5.599   2.506   1.307 -0.1434  1.8605 -0.0348
  524TIP3    H2 2002   5.540   2.415   1.413  1.6839 -1.3062 -1.6573
  525TIP3   OH2 2003   2.099   0.369   0.809  0.3741 -0.1564  0.8195
  525TIP3    H1 2004   2.134   0.442   0.859 -0.7869  0.8274  0.2175
  525TIP3    H2 2005   2.164   0.354   0.740  1.2665 -0.5746  1.7474
  526TIP3   OH2 2006   5.291   2.222   0.710  0.3120  0.2185  0.0796
  526TIP3    H1 2007   5.213   2.197   0.760  0.6577  1.2100  1.1489
  526TIP3    H2 2008   5.282   2.317   0.697  0.4922  0.0575 -1.2852
  527TIP3   OH2 2009   5.021   3.332   4.933 -0.3248  0.0188 -0.0015
  527TIP3    H1 2010   4.988   3.420   4.919  0.0734  0.1159 -0.3434
  527TIP3    H2 2011   4.949   3.285   4.975 -0.8773  0.2434 -0.6836
  528TIP3   OH2 2012   1.006   1.563   1.125 -0.2439 -0.4011 -0.2795
  528TIP3    H1 2013   0.975   1.604   1.044  0.4225 -1.6758 -1.2066
  528TIP3    H2 2014   1.080   1.616   1.152 -0.0391 -0.3753 -0.8885
  529TIP3   OH2 2015   6.090   0.816   2.050 -0.1214 -0.5461 -0.5651
  529TIP3    H1 2016   6.016   0.770   2.089 -0.8769  0.0850 -1.2487
  529TIP3    H2 2017   6.102   0.893   2.104 -0.2115 -0.4426 -0.6939
  530TIP3   OH2 2018   0.732   2.411   5.288 -0.3085 -0.3326  0.2553
  530TIP3    H1 2019   0.823   2.385   5.272 -0.1712 -0.7573  1.6593
  530TIP3    H2 2020   0.738   2.502   5.316 -0.0372 -1.1188  2.9015
  531TIP3   OH2 2021   4.386   5.339   1.610 -0.1947 -0.3518  0.4000
  531TIP3    H1 2022   4.339   5.267   1.567  0.8758 -0.8576  0.0532
  531TIP3    H2 2023   4.477   5.326   1.584 -0.1498  1.8038 -0.6023
  532TIP3   OH2 2024   0.231   1.936   0.191  0.5287  0.5734  0.1639
  532TIP3    H1 2025   0.210   1.921   0.284  0.6194 -0.5631  0.0094
  532TIP3    H2 2026   0.159   1.990   0.159  0.4190  0.8488  0.8666
  533TIP3   OH2 2027   4.264   0.568   1.244 -0.7079 -0.4265 -0.0513
  533TIP3    H1 2028   4.348   0.544   1.282 -1.1134 -0.0344  1.1071
  533TIP3    H2 2029   4.277   0.559   1.149  0.8011  0.1713  0.0904
  534TIP3   OH2 2030   4.715   2.854   0.045 -0.3709 -0.0477  0.0375
  534TIP3    H1 2031   4.729   2.791   0.115  0.7800  0.4393  0.2518
  534TIP3    H2 2032   4.691   2.935   0.091  1.7045  0.6393 -0.0436
  535TIP3   OH2 2033   3.699   0.791   2.161 -0.5110  0.0062 -0.3481
  535TIP3    H1 2034   3.713   0.696   2.166 -0.6672 -0.0330 -0.6918
  535TIP3    H2 2035   3.647   0.804   2.082 -1.5102  0.2620  0.3445
  536TIP3   OH2 2036   2.523   1.059   2.718 -0.1488 -0.1159 -0.1202
  536TIP3    H1 2037   2.592   1.103   2.669 -0.4575  0.7244  0.1976
  536TIP3    H2 2038   2.453   1.124   2.726 -1.0105 -0.9684 -0.4835
  537TIP3   OH2 2039   4.295   6.076   5.144 -0.3136 -0.0831  0.0819
  537TIP3    H1 2040   4.365   6.104   5.204 -1.3653  0.2963  1.1532
  537TIP3    H2 2041   4.306   5.981   5.138  0.4292 -0.0005  0.0658
  538TIP3   OH2 2042   4.673   0.815   2.366 -0.3866  0.2093  0.1445
  538TIP3    H1 2043   4.644   0.780   2.450  1.1494 -1.5352  0.0035
  538TIP3    H2 2044   4.613   0.777   2.302 -0.1265 -0.3524  0.2292
  539TIP3   OH2 2045   4.672   2.494   2.255  0.4582 -0.3149  0.4536
  539TIP3    H1 2046   4.671   2.581   2.216  0.8254  0.1778  1.5591
  539TIP3    H2 2047   4.658   2.435   2.180  1.3463  0.6117 -0.4607
  540TIP3   OH2 2048   3.607   4.773   4.666  0.0783 -0.2509  0.3773
  540TIP3    H1 2049   3.686   4.751   4.616 -0.9668 -2.3236 -0.4300
  540TIP3    H2 2050   3.534   4.748   4.608 -1.1748  0.8202  1.4517
  541TIP3   OH2 2051   1.919   1.654   1.631  0.5387 -0.0222 -0.3388
  541TIP3    H1 2052   1.826   1.654   1.609  0.6072 -0.1456 -0.6371
  541TIP3    H2 2053   1.938   1.744   1.657  0.1507 -0.1861  0.5245
  542TIP3   OH2 2054   4.053   0.185   5.614  0.1930  0.3473  0.6106
  542TIP3    H1 2055   3.974   0.143   5.579 -0.7154  2.0326  0.5428
  542TIP3    H2 2056   4.120   0.170   5.547 -0.2973 -0.3720  0.2744
  543TIP3   OH2 2057   2.433   1.722   0.799 -0.4524  0.2887 -0.3325
  543TIP3    H1 2058   2.483   1.669   0.737 -2.7514 -1.3956 -0.8147
  543TIP3    H2 2059   2.492   1.794   0.822  1.8293 -1.1302 -1.5526
  544TIP3   OH2 2060   5.752   0.812   2.245  0.6695 -0.0943  0.2134
  544TIP3    H1 2061   5.793   0.896   2.225  1.6113 -0.5960  0.0277
  544TIP3    H2 2062   5.758   0.762   2.164 -0.5318 -0.0959  0.1104
  545TIP3   OH2 2063   1.154   1.039   3.284  0.1718 -0.0433  0.3603
  545TIP3    H1 2064   1.161   0.961   3.229  0.8861  0.0746  0.2750
  545TIP3    H2 2065   1.221   1.099   3.249 -0.4773  0.6700  0.3194
  546TIP3   OH2 2066   1.532   5.864   5.778  0.3334 -0.0668 -0.5364
  546TIP3    H1 2067   1.533   5.956   5.805  0.4935 -0.4974  0.9551
  546TIP3    H2 2068   1.623   5.843   5.758  0.4119 -0.1048 -0.1458
  547TIP3   OH2 2069   3.572   0.043   4.189 -0.2464 -0.1465 -0.2874
  547TIP3    H1 2070   3.532   0.037   4.102 -0.9678 -0.1473  0.0401
  547TIP3    H2 2071   3.501   0.070   4.247 -0.8073 -4.0475  1.0389
  548TIP3   OH2 2072   3.559   5.744   2.835  0.5239 -0.1889  0.1466
  548TIP3    H1 2073   3.532   5.691   2.910  0.7896 -2.3814 -1.2679
  548TIP3    H2 2074   3.538   5.690   2.759 -1.1764  2.6320 -1.4519
  549TIP3   OH2 2075   1.124   1.438   4.117  0.0822  0.3834  0.5731
  549TIP3    H1 2076   1.044   1.488   4.133  0.6610  0.9745  1.7713
  549TIP3    H2 2077   1.170   1.488   4.050 -0.2484  0.4067  0.3635
  550TIP3   OH2 2078   5.459   0.355   0.523  0.2181 -0.1664  0.7036
  550TIP3    H1 2079   5.420   0.289   0.466 -0.6431  1.4815 -0.6626
  550TIP3    H2 2080   5.553   0.343   0.513  0.1082  0.8457 -2.0360
  551TIP3   OH2 2081   4.819   1.722   6.035  0.7824  0.0171  0.1160
  551TIP3    H1 2082   4.855   1.795   5.985  1.8723  1.0559  2.3464
  551TIP3    H2 2083   4.797   1.759   6.121 -3.5916 -1.1133 -0.3858
  552TIP3   OH2 2084   4.087   0.267   2.552  0.0310  0.3131  0.2232
  552TIP3    H1 2085   4.092   0.357   2.522  1.2142  0.7565  1.6558
  552TIP3    H2 2086   4.022   0.225   2.495  0.7302  1.6149 -1.5597
  553TIP3   OH2 2087   4.662   6.032   0.461  0.7313  0.7046 -0.3770
  553TIP3    H1 2088   4.750   6.057   0.434  0.8963  0.0687 -0.4290
  553TIP3    H2 2089   4.643   6.088   0.536  0.7101  1.6822 -1.0976
  554TIP3   OH2 2090   3.847   1.401   0.262  0.3004 -0.4442  0.1870
  554TIP3    H1 2091   3.932   1.371   0.230 -0.3643 -1.5446 -0.5776
  554TIP3    H2 2092   3.788   1.328   0.244 -1.0106  0.6892 -0.1891
  555TIP3   OH2 2093   4.224   2.156   0.660 -0.0462 -0.0922 -0.2799
  555TIP3    H1 2094   4.256   2.124   0.576  1.4668 -1.9275  0.9727
  555TIP3    H2 2095   4.152   2.215   0.637 -0.2767 -1.3035 -2.8087
  556TIP3   OH2 2096   5.428   0.516   4.452 -0.0310  0.0665 -0.0280
  556TIP3    H1 2097   5.385   0.451   4.395  0.7608  0.2007 -0.7850
  556TIP3    H2 2098   5.517   0.521   4.419 -0.2378  1.9748 -0.3570
  557TIP3   OH2 2099   3.780   0.368   0.515 -0.8190 -0.4364 -0.1534
  557TIP3    H1 2100   3.843   0.438   0.495 -1.2733  0.0574  0.1516
  557TIP3    H2 2101   3.833   0.300   0.558 -0.6864  0.4053  1.0114
  558TIP3   OH2 2102   2.976   0.495   0.092 -0.0829  0.1984  0.2789
  558TIP3    H1 2103   2.949   0.511   0.183 -2.5228 -0.5846 -0.2924
  558TIP3    H2 2104   2.906   0.532   0.039 -0.4336 -2.5229 -1.2402
  559TIP3   OH2 2105   3.591   5.565   5.910  0.5590  0.5427 -0.1505
  559TIP3    H1 2106   3.588   5.505   5.984  0.3406  0.8794  0.1179
  559TIP3    H2 2107   3.501   5.570   5.879  0.3587  1.6513  0.5822
  560TIP3   OH2 2108   3.508   2.817   0.560 -0.4315 -0.4928 -1.0458
  560TIP3    H1 2109   3.429   2.846   0.605 -0.4703 -1.2036 -0.6583
  560TIP3    H2 2110   3.535   2.737   0.606  0.9349  0.1492 -0.6950
  561TIP3   OH2 2111   4.175   4.202   2.404 -0.1784 -0.1485  0.8808
  561TIP3    H1 2112   4.176   4.298   2.397 -0.6074 -0.2467 -0.7441
  561TIP3    H2 2113   4.264   4.176   2.382 -0.0012 -0.1054  1.5541
  562TIP3   OH2 2114   5.283   1.350   4.228 -0.1770 -0.0071 -0.3883
  562TIP3    H1 2115   5.373   1.377   4.249 -0.8957  2.6411 -0.4456
  562TIP3    H2 2116   5.231   1.382   4.302 -1.1578 -0.9833 -0.6464
  563TIP3   OH2 2117   4.561   5.402   4.324 -0.9721 -0.1188  0.5152
  563TIP3    H1 2118   4.628   5.449   4.274 -1.0334 -0.3761  0.1889
  563TIP3    H2 2119   4.588   5.412   4.416 -0.3672 -0.4047  0.3717
  564TIP3   OH2 2120   3.489   3.154   2.062 -0.2762 -0.2732  0.2289
  564TIP3    H1 2121   3.431   3.191   2.128 -0.3031 -0.5797  0.3765
  564TIP3    H2 2122   3.571   3.203   2.072 -0.3286 -0.2173  0.3883
  565TIP3   OH2 2123   4.676   0.984   1.025 -0.8621 -0.1134 -0.2885
  565TIP3    H1 2124   4.689   1.078   1.017 -0.0457 -0.2330 -0.3877
  565TIP3    H2 2125   4.663   0.954   0.936  0.7455 -0.3607 -0.4499
  566TIP3   OH2 2126   5.723   3.963   2.419 -0.4814 -0.4967  0.1794
  566TIP3    H1 2127   5.652   3.903   2.395 -0.8324 -0.1368  0.3196
  566TIP3    H2 2128   5.745   4.008   2.337 -0.6509 -0.3608  0.2069
  567TIP3   OH2 2129   3.007   2.778   5.992  0.3263 -0.4167  0.0224
  567TIP3    H1 2130   3.000   2.834   6.069  0.3921 -1.3345  0.6900
  567TIP3    H2 2131   3.076   2.818   5.940  0.2228  0.2525  0.3909
  568TIP3   OH2 2132   2.620   5.173   1.598  0.1277 -0.5028 -0.0954
  568TIP3    H1 2133   2.578   5.110   1.657  4.2567 -1.0194  2.5051
  568TIP3    H2 2134   2.689   5.123   1.554  1.2463  1.4004 -0.5675
  569TIP3   OH2 2135   0.059   5.474   2.055 -0.0312 -0.0155 -0.1313
  569TIP3    H1 2136   0.072   5.390   2.098 -1.3058 -1.2971 -2.1605
  569TIP3    H2 2137   0.096   5.463   1.968  0.9593  1.9702  0.0075
  570TIP3   OH2 2138   4.997   5.652   0.530 -1.0057  0.1919  0.6909
  570TIP3    H1 2139   5.046   5.657   0.449 -1.5155  0.5551  0.4014
  570TIP3    H2 2140   4.948   5.734   0.534 -0.1821  0.6451  1.8879
  571TIP3   OH2 2141   4.339   1.206   0.184 -0.2472 -0.0788  0.0115
  571TIP3    H1 2142   4.429   1.190   0.214 -0.7800 -1.1337  1.1016
  571TIP3    H2 2143   4.340   1.183   0.091  0.3983 -0.9705  0.2255
  572TIP3   OH2 2144   5.253   1.250   1.713 -0.2231 -0.2250 -0.4272
  572TIP3    H1 2145   5.256   1.218   1.623 -1.4040 -1.2471 -0.1083
  572TIP3    H2 2146   5.313   1.194   1.761  3.2862  2.6355 -1.2511
  573TIP3   OH2 2147   4.942   4.522   1.803  0.4294  0.4792 -0.2026
  573TIP3    H1 2148   5.016   4.462   1.810 -0.4552 -0.6628 -0.7340
  573TIP3    H2 2149   4.938   4.564   1.889  0.9289 -0.3485  0.2298
  574TIP3   OH2 2150   2.583   1.112   3.766 -0.4141 -0.4189  0.2266
  574TIP3    H1 2151   2.629   1.108   3.850  0.5784  1.3155 -0.2178
  574TIP3    H2 2152   2.648   1.083   3.701 -1.2893 -2.1107  0.0848
  575TIP3   OH2 2153   4.943   5.262   1.202  0.1781  0.3911 -0.6277
  575TIP3    H1 2154   4.963   5.175   1.237  1.5362  0.2126 -1.7783
  575TIP3    H2 2155   5.021   5.285   1.150  0.0182  2.4795  0.0314
  576TIP3   OH2 2156   0.072   0.608   1.264 -0.2144 -0.0177  0.0115
  576TIP3    H1 2157   0.018   0.534   1.292  0.8895 -0.8184  0.0882
  576TIP3    H2 2158   0.113   0.578   1.183  1.0974  0.0757  0.6222
  577TIP3   OH2 2159   2.144   4.147   0.724  0.0970 -0.3704 -0.0928
  577TIP3    H1 2160   2.189   4.208   0.783  0.7675 -0.9296 -0.0146
  577TIP3    H2 2161   2.192   4.064   0.735  1.4257 -0.0210 -2.8095
  578TIP3   OH2 2162   5.156   1.658   1.777 -0.3078  0.1590 -0.3007
  578TIP3    H1 2163   5.076   1.696   1.741 -1.9510 -1.9811  0.9663
  578TIP3    H2 2164   5.201   1.621   1.701 -1.4999 -0.3568 -0.7599
  579TIP3   OH2 2165   4.144   3.005   0.033  0.2097 -0.4108  0.1178
  579TIP3    H1 2166   4.169   3.027  -0.056  0.8419  0.2558  0.4542
  579TIP3    H2 2167   4.097   2.922   0.025  1.9714 -1.3680 -0.6047
  580TIP3   OH2 2168   5.567   5.342   0.106  0.2750  0.2481 -0.1117
  580TIP3    H1 2169   5.588   5.292   0.185  1.5672 -0.8185 -1.0896
  580TIP3    H2 2170   5.525   5.279   0.048 -1.5276  1.2597  0.0639
  581TIP3   OH2 2171   2.935   1.568   0.128 -0.0209  0.1744  0.4325
  581TIP3    H1 2172   2.921   1.512   0.204  1.5902  0.4930  0.9686
  581TIP3    H2 2173   2.905   1.655   0.157 -0.6454  0.0190  0.2602
  582TIP3   OH2 2174   4.050   0.261   2.020  0.3980  0.4174 -0.1023
  582TIP3    H1 2175   3.964   0.226   1.994  0.2824 -0.2888  1.1640
  582TIP3    H2 2176   4.102   0.183   2.042  1.2156  0.8677 -0.4273
  583TIP3   OH2 2177   6.070   2.094   2.096 -0.1383 -0.2238 -0.2467
  583TIP3    H1 2178   6.122   2.169   2.126  0.6160 -0.5083 -0.8254
  583TIP3    H2 2179   6.023   2.127   2.019  1.5680 -0.8440 -1.5776
  584TIP3   OH2 2180   0.793   2.308   1.557 -0.0594 -0.1592 -0.7740
  584TIP3    H1 2181   0.746   2.377   1.604  0.1175  0.3648 -1.3702
  584TIP3    H2 2182   0.759   2.312   1.467  0.1567 -0.6649 -0.8819
  585TIP3   OH2 2183   1.126   6.011   2.730  0.1514  0.3824 -0.1920
  585TIP3    H1 2184   1.082   6.044   2.653  1.0635  0.5786 -0.6382
  585TIP3    H2 2185   1.092   5.922   2.741 -2.0118  1.3160  0.7922
  586TIP3   OH2 2186   5.534   0.469   1.632 -0.7461 -0.7654 -0.1763
  586TIP3    H1 2187   5.629   0.458   1.634 -0.7066 -0.6314 -1.1598
  586TIP3    H2 2188   5.499   0.380   1.636 -0.5858 -0.8061  0.3488
  587TIP3   OH2 2189   4.610   2.589   0.747  0.2450  0.0509  0.6862
  587TIP3    H1 2190   4.567   2.571   0.831 -2.1755  0.6834 -0.3672
  587TIP3    H2 2191   4.686   2.642   0.770 -1.1230  1.3212  2.3760
  588TIP3   OH2 2192   1.150   2.883   2.513  0.0171 -0.4500 -0.0260
  588TIP3    H1 2193   1.116   2.896   2.425 -1.0042  0.1001  0.4389
  588TIP3    H2 2194   1.117   2.798   2.540  1.0499 -1.0092 -0.4930
  589TIP3   OH2 2195   4.779   4.312   0.636  0.4460  0.2745 -0.0266
  589TIP3    H1 2196   4.838   4.342   0.705 -1.7805  1.4902  1.4121
  589TIP3    H2 2197   4.837   4.281   0.567  2.7893  2.2807  0.9520
  590TIP3   OH2 2198   3.110   5.595   1.373 -0.2944 -0.0775  0.2909
  590TIP3    H1 2199   3.163   5.625   1.447 -2.8847  2.1431  1.3212
  590TIP3    H2 2200   3.169   5.605   1.298  1.8787 -0.9386  1.8116
  591TIP3   OH2 2201   4.744   4.854   1.924  0.4202 -0.3772 -0.4962
  591TIP3    H1 2202   4.675   4.810   1.973 -0.0596  0.3972 -0.4783
  591TIP3    H2 2203   4.825   4.819   1.961  0.0453 -1.8236 -1.0007
  592TIP3   OH2 2204   5.391   1.343   5.645 -0.1943 -0.4429  0.4298
  592TIP3    H1 2205   5.461   1.283   5.670 -0.7277 -1.3309 -0.1623
  592TIP3    H2 2206   5.317   1.319   5.702 -0.3270 -0.1652  0.3792
  593TIP3   OH2 2207   3.973   5.753   2.301 -0.3059  0.8146  0.3362
  593TIP3    H1 2208   4.059   5.787   2.273  0.5050 -2.0461 -0.9186
  593TIP3    H2 2209   3.990   5.710   2.384 -0.3881 -0.1584 -0.1365
  594TIP3   OH2 2210   5.465   0.087   1.114 -0.0827  0.2496  0.0383
  594TIP3    H1 2211   5.559   0.087   1.129 -0.0835  0.0135  0.0468
  594TIP3    H2 2212   5.450   0.017   1.051 -0.3891 -0.4955  0.9265
  595TIP3   OH2 2213   5.338   0.163   0.114  0.1036  0.1842  0.1302
  595TIP3    H1 2214   5.401   0.173   0.186 -1.0944 -0.4476  1.2949
  595TIP3    H2 2215   5.391   0.136   0.039  1.3846  0.9445  0.7477
  596TIP3   OH2 2216   2.512   5.608   0.309 -0.2249 -0.6287 -0.5766
  596TIP3    H1 2217   2.522   5.537   0.245  1.3250  0.2072 -1.2746
  596TIP3    H2 2218   2.533   5.688   0.260 -2.7362  0.4259 -0.0179
  597TIP3   OH2 2219   5.171   0.070   5.316  0.5779  0.7170  0.1781
  597TIP3    H1 2220   5.238   0.127   5.278  0.5294  0.4743 -0.2669
  597TIP3    H2 2221   5.138   0.019   5.243 -0.1181  0.8557  0.3910
  598TIP3   OH2 2222   0.970   5.399   6.088  0.2733  0.0628 -0.2322
  598TIP3    H1 2223   0.952   5.428   5.998 -0.6489 -0.0091 -0.0681
  598TIP3    H2 2224   0.925   5.463   6.143  0.0647 -0.4299  0.1694
  599TIP3   OH2 2225   6.083   5.145   0.340 -0.4956 -0.1184 -0.0975
  599TIP3    H1 2226   6.003   5.181   0.379 -1.4249  0.8554 -2.7673
  599TIP3    H2 2227   6.145   5.218   0.339  0.5637 -0.9577  2.2544
  600TIP3   OH2 2228   2.508   1.664   1.567 -0.4194 -0.2456 -0.3810
  600TIP3    H1 2229   2.492   1.730   1.499  2.4556  0.5715 -0.3465
  600TIP3    H2 2230   2.450   1.592   1.544 -1.8832  1.3242 -1.8257
  601TIP3   OH2 2231   4.807   0.441   3.999  0.1274  0.2989 -0.3394
  601TIP3    H1 2232   4.812   0.536   3.998 -2.5431  0.5025  0.9032
  601TIP3    H2 2233   4.747   0.420   4.071  0.6842 -2.3195 -0.5577
  602TIP3   OH2 2234   2.280   5.165   0.696  0.8730  0.0187  0.3477
  602TIP3    H1 2235   2.327   5.147   0.778  0.8116  1.6207  0.7525
  602TIP3    H2 2236   2.214   5.096   0.691  1.1126 -0.3102  1.4762
  603TIP3   OH2 2237   4.667   0.014   5.055  0.4634  0.1699 -0.0412
  603TIP3    H1 2238   4.654  -0.064   5.108  0.3798 -1.8867 -2.9537
  603TIP3    H2 2239   4.762   0.030   5.059  1.0987 -2.4708 -2.5132
  604TIP3   OH2 2240   4.880   2.520   1.600  0.1310 -0.0988 -0.2106
  604TIP3    H1 2241   4.891   2.509   1.694  0.7757  0.4052 -0.2256
  604TIP3    H2 2242   4.965   2.498   1.562 -0.1226 -0.3006 -0.6764
  605TIP3   OH2 2243   0.053   0.988   2.501  0.3478 -0.0165 -0.2891
  605TIP3    H1 2244  -0.001   1.052   2.454  0.0934  0.6751  0.8971
  605TIP3    H2 2245  -0.008   0.919   2.526  0.0711  0.5583  0.6799
  606TIP3   OH2 2246   5.166   1.247   5.755 -0.2137  0.4375  0.4011
  606TIP3    H1 2247   5.140   1.200   5.676 -1.9091  0.1020  1.1423
  606TIP3    H2 2248   5.211   1.180   5.808 -1.1936  0.0453  0.7504
  607TIP3   OH2 2249   4.625   5.642   5.010  0.0230 -0.9472 -0.2002
  607TIP3    H1 2250   4.574   5.685   4.941  0.7354  1.8160  0.8960
  607TIP3    H2 2251   4.682   5.581   4.964 -1.7753 -1.4833 -1.7543
  608TIP3   OH2 2252   4.483   0.898   2.094  0.0368 -0.1996  0.2147
  608TIP3    H1 2253   4.462   0.806   2.112  0.1287 -0.1850  0.4044
  608TIP3    H2 2254   4.404   0.933   2.053 -0.4394 -0.0554  1.2397
  609TIP3   OH2 2255   3.654   0.350   1.996  0.0487 -0.1440  0.0540
  609TIP3    H1 2256   3.568   0.335   1.956  1.0211 -0.9455 -1.8207
  609TIP3    H2 2257   3.696   0.264   1.995  1.6845  0.6440 -1.0541
  610TIP3   OH2 2258   4.598   0.122   0.674 -0.2716  0.4121 -0.0074
  610TIP3    H1 2259   4.521   0.120   0.731 -0.7861 -3.2820 -0.6490
  610TIP3    H2 2260   4.672   0.105   0.733 -0.5065 -0.7703 -0.0426
  611TIP3   OH2 2261   3.170   2.932   1.737 -0.0689 -0.4330  0.4131
  611TIP3    H1 2262   3.200   3.006   1.684  1.0048 -1.7721 -0.9178
  611TIP3    H2 2263   3.232   2.927   1.809  1.1159 -1.2787 -0.6342
  612TIP3   OH2 2264   5.881   2.068   1.098  0.5864 -0.2887  0.1493
  612TIP3    H1 2265   5.854   2.120   1.174  0.8935  0.2436 -0.1043
  612TIP3    H2 2266   5.949   2.121   1.056  0.2846 -0.5020 -0.6050
  613TIP3   OH2 2267   5.258   0.402   0.994  0.6739 -0.1194  0.3061
  613TIP3    H1 2268   5.218   0.347   0.927 -0.7417  1.9286 -0.6025
  613TIP3    H2 2269   5.248   0.353   1.075 -1.7278 -0.6619 -0.2699
  614TIP3   OH2 2270   3.497   1.919   1.584 -0.1338  0.4161  0.3245
  614TIP3    H1 2271   3.526   1.870   1.507 -1.4203  1.3250 -0.7784
  614TIP3    H2 2272   3.473   1.852   1.648  0.1332 -0.3672 -0.3902
  615TIP3   OH2 2273   3.263   2.074   1.895 -0.2417 -0.3466  0.9596
  615TIP3    H1 2274   3.205   2.099   1.823  0.0998 -0.5209  0.6224
  615TIP3    H2 2275   3.212   2.013   1.948  0.0539 -1.4327 -0.0003
  616TIP3   OH2 2276   2.452   0.052   1.180  0.0274 -0.0957 -0.0568
  616TIP3    H1 2277   2.454   0.147   1.187  1.4922 -0.2283  1.5696
  616TIP3    H2 2278   2.393   0.035   1.107  1.4189  2.1324 -1.7881
  617TIP3   OH2 2279   3.182   0.557   0.317  0.0766  0.4847  0.0913
  617TIP3    H1 2280   3.163   0.476   0.269  0.2045  1.4532 -1.6599
  617TIP3    H2 2281   3.152   0.541   0.406 -1.0393 -1.0471 -0.5498
  618TIP3   OH2 2282   0.420   4.549   1.737  0.8169 -0.8191 -0.3636
  618TIP3    H1 2283   0.464   4.524   1.656 -0.0347  0.2905 -1.1751
  618TIP3    H2 2284   0.354   4.613   1.710 -0.0773 -1.1129  1.0830
  619TIP3   OH2 2285   4.703   1.765   2.695 -0.1310 -0.3421 -0.2714
  619TIP3    H1 2286   4.762   1.714   2.638  0.3817  0.0320 -0.0772
  619TIP3    H2 2287   4.762   1.816   2.750 -0.6325 -0.5250  0.4394
  620TIP3   OH2 2288   5.464   1.138   0.722 -0.0777 -0.2732  0.2905
  620TIP3    H1 2289   5.506   1.126   0.637 -0.1480  1.5373 -0.0067
  620TIP3    H2 2290   5.536   1.132   0.785  0.6333  2.5122 -0.1948
  621TIP3   OH2 2291   2.897   0.217   0.957 -0.5762  0.1914  0.1367
  621TIP3    H1 2292   2.805   0.202   0.936 -0.6107  0.7884 -0.1391
  621TIP3    H2 2293   2.902   0.206   1.052 -0.2140 -3.5397 -0.2567
  622TIP3   OH2 2294   5.519   0.827   0.910 -0.0822 -0.0687  0.3557
  622TIP3    H1 2295   5.492   0.753   0.964  0.2465  0.2559  0.9676
  622TIP3    H2 2296   5.457   0.828   0.837  0.9178 -1.9787 -0.5630
  623TIP3   OH2 2297   2.166   5.427   2.509 -0.2062 -0.2568  0.3082
  623TIP3    H1 2298   2.171   5.461   2.599 -0.1143 -0.1583  0.2654
  623TIP3    H2 2299   2.145   5.503   2.456 -2.5854 -0.7011  0.5307
  624TIP3   OH2 2300   3.919   6.088   0.262 -0.2409 -0.1400  0.3933
  624TIP3    H1 2301   3.827   6.099   0.287  0.0058  1.5681  0.5837
  624TIP3    H2 2302   3.933   5.993   0.266 -2.1863 -0.4833 -0.3383
  625TIP3   OH2 2303   0.617   1.322   0.877 -0.1293 -0.3820  0.1284
  625TIP3    H1 2304   0.634   1.329   0.971  0.5275 -0.4368  0.0155
  625TIP3    H2 2305   0.522   1.310   0.870 -0.2274  0.0709  0.7570
  626TIP3   OH2 2306   4.787   3.689   5.053  0.2871  1.2824 -0.2148
  626TIP3    H1 2307   4.764   3.774   5.091 -0.9567  1.3054 -0.9763
  626TIP3    H2 2308   4.856   3.655   5.110 -0.1601  2.1912  0.8978
  627TIP3   OH2 2309   3.722   1.728   4.030  0.1490  0.2147 -0.1551
  627TIP3    H1 2310   3.627   1.734   4.040  0.0561  1.2270 -1.5211
  627TIP3    H2 2311   3.757   1.778   4.104 -0.4148  1.2649 -0.5861
  628TIP3   OH2 2312   5.259   5.504   5.936 -0.3512  0.0903  0.3612
  628TIP3    H1 2313   5.236   5.491   6.028 -2.2897  1.0278  0.0190
  628TIP3    H2 2314   5.347   5.543   5.939  0.7693 -2.4022  1.7123
  629TIP3   OH2 2315   5.213   6.084   5.842 -0.6295 -0.9478  0.5583
  629TIP3    H1 2316   5.142   6.094   5.778  1.5085  0.2585 -1.7467
  629TIP3    H2 2317   5.234   5.991   5.841 -0.2842 -0.8855 -0.9863
  630TIP3   OH2 2318   5.414   2.971   5.174 -0.0590 -0.2591 -0.1534
  630TIP3    H1 2319   5.452   3.028   5.107  1.1937 -0.5458  0.3095
  630TIP3    H2 2320   5.480   2.903   5.188 -2.0685 -2.6488 -1.7224
  631TIP3   OH2 2321   4.923   0.567   0.318 -0.2600 -0.2841  0.5944
  631TIP3    H1 2322   4.996   0.529   0.367  1.0822  0.2064 -0.9631
  631TIP3    H2 2323   4.965   0.618   0.248 -2.0216  2.5786  1.5341
  632TIP3   OH2 2324   3.005   1.030   2.190 -0.1376  0.1696  0.1582
  632TIP3    H1 2325   3.096   1.000   2.180 -0.3039 -0.3472  0.2386
  632TIP3    H2 2326   3.014   1.125   2.203  0.4208  0.0589  0.6112
  633TIP3   OH2 2327   3.611   0.483   1.455  0.3547 -0.0269  0.8665
  633TIP3    H1 2328   3.592   0.389   1.459 -2.6368  0.5399  1.4103
  633TIP3    H2 2329   3.652   0.496   1.370 -2.5822 -1.3064 -0.8178
  634TIP3   OH2 2330   4.853   2.700   0.423  0.0376 -0.7568 -0.2941
  634TIP3    H1 2331   4.786   2.651   0.470 -2.5803  1.8942 -1.0967
  634TIP3    H2 2332   4.847   2.789   0.460  3.2512 -0.4755 -0.2756
  635TIP3   OH2 2333   4.020   1.795   0.868 -0.1463 -0.3467 -0.2752
  635TIP3    H1 2334   4.005   1.889   0.858  0.7317 -0.2036 -0.3002
  635TIP3    H2 2335   4.012   1.759   0.780  2.4185  0.1500 -0.7627
  636TIP3   OH2 2336   5.348   5.487   2.080 -0.0724 -0.4682  0.0832
  636TIP3    H1 2337   5.271   5.520   2.035 -0.1997  1.3688  1.6135
  636TIP3    H2 2338   5.373   5.409   2.030 -1.2437  0.5056 -2.0786
  637TIP3   OH2 2339   5.485   6.060   0.536  1.1542  0.2156  0.0182
  637TIP3    H1 2340   5.522   5.973   0.522 -1.4028 -1.1257  1.1074
  637TIP3    H2 2341   5.509   6.083   0.626 -0.6097 -0.6705  0.7368
  638TIP3   OH2 2342   2.733   2.823   4.556 -0.4707 -0.3825  0.3563
  638TIP3    H1 2343   2.768   2.858   4.475 -0.6939 -1.5690 -0.2691
  638TIP3    H2 2344   2.663   2.884   4.581 -0.0168  0.2956 -0.0287
  639TIP3   OH2 2345   6.072   5.990   2.038  0.1785  0.1581  0.3968
  639TIP3    H1 2346   6.038   5.931   1.971  1.4131 -0.6139  0.4178
  639TIP3    H2 2347   6.084   5.933   2.115  0.5149  0.6268  0.6926
  640TIP3   OH2 2348   5.743   2.375   2.175 -0.3145  0.7188 -0.1694
  640TIP3    H1 2349   5.754   2.297   2.120  0.7554  0.7127  0.0354
  640TIP3    H2 2350   5.727   2.340   2.262  1.3438  0.7049  0.1503
  641TIP3   OH2 2351   1.651   5.219   5.719  0.3625 -0.0136  0.0575
  641TIP3    H1 2352   1.716   5.233   5.789 -0.0660 -1.3484  0.7631
  641TIP3    H2 2353   1.613   5.305   5.704  0.3577  0.2773  1.5879
  642TIP3   OH2 2354   0.807   1.507   2.628  0.3916  0.9630 -0.0963
  642TIP3    H1 2355   0.894   1.483   2.596  1.5306  1.7898  2.2897
  642TIP3    H2 2356   0.823   1.562   2.705 -2.2313  0.4262  0.9115
  643TIP3   OH2 2357   4.491   4.195   5.154 -0.3390 -0.1303 -0.5672
  643TIP3    H1 2358   4.471   4.287   5.175 -0.8411 -0.4631  0.4366
  643TIP3    H2 2359   4.461   4.183   5.064 -1.4610  0.3294 -0.2555
  644TIP3   OH2 2360   3.535   1.667   1.677 -0.0698  0.8187 -0.0397
  644TIP3    H1 2361   3.625   1.688   1.701  0.1833 -0.1172 -0.1273
  644TIP3    H2 2362   3.488   1.663   1.760  0.5549 -1.2868  0.2445
  645TIP3   OH2 2363   1.252   0.549   2.619  0.1148  0.1567  0.5692
  645TIP3    H1 2364   1.299   0.550   2.702 -0.4678  0.2561  0.9043
  645TIP3    H2 2365   1.306   0.495   2.562 -0.1314 -1.0219  1.4129
  646TIP3   OH2 2366   0.506   1.411   3.139 -0.0749 -0.7392  0.6812
  646TIP3    H1 2367   0.547   1.328   3.116  0.0444 -0.8315  1.2215
  646TIP3    H2 2368   0.546   1.436   3.222 -1.2261 -0.9218  1.3075
  647TIP3   OH2 2369   5.640   3.651   0.762 -0.4139  0.2703  0.1704
  647TIP3    H1 2370   5.623   3.686   0.675  2.4267 -1.2162 -1.0357
  647TIP3    H2 2371   5.671   3.726   0.813 -0.0322  0.7098 -0.7116
  648TIP3   OH2 2372   3.638   1.013   1.459 -0.1673  0.6749  0.0325
  648TIP3    H1 2373   3.644   0.927   1.500 -0.9109  1.2049  1.3127
  648TIP3    H2 2374   3.717   1.021   1.406 -0.7884 -1.3611 -1.2208
  649TIP3   OH2 2375   5.132   4.087   1.318 -0.2672 -0.1153 -0.4240
  649TIP3    H1 2376   5.115   4.172   1.278 -2.0927 -0.6221 -0.7889
  649TIP3    H2 2377   5.214   4.098   1.366 -0.5898  1.8958 -0.3125
  650TIP3   OH2 2378   4.580   1.011   1.368  0.5001  0.2666  0.1393
  650TIP3    H1 2379   4.649   1.067   1.333  0.6869  0.4402  0.7871
  650TIP3    H2 2380   4.529   1.068   1.425 -0.5160  0.2820 -0.7593
  651TIP3   OH2 2381   0.269   1.176   6.087  0.6246  0.0880  0.5747
  651TIP3    H1 2382   0.233   1.136   6.167  1.4708  0.6015  1.2234
  651TIP3    H2 2383   0.326   1.246   6.119 -2.8159  3.6161 -0.5841
  652TIP3   OH2 2384   5.487   0.807   2.050 -0.4685 -0.0278 -0.0517
  652TIP3    H1 2385   5.408   0.753   2.043 -2.4920  2.9005 -0.5929
  652TIP3    H2 2386   5.517   0.793   2.140 -1.6112 -1.1411  0.1741
  653TIP3   OH2 2387   4.370   5.520   0.435 -0.1174 -0.5888  0.2880
  653TIP3    H1 2388   4.356   5.584   0.505  0.4945  0.3629 -0.4504
  653TIP3    H2 2389   4.453   5.546   0.395 -1.5814  0.2858 -2.2787
  654TIP3   OH2 2390   5.011   0.304   5.429  0.1422  0.1279  0.2645
  654TIP3    H1 2391   5.022   0.238   5.360 -1.2873  0.8091 -0.6497
  654TIP3    H2 2392   4.917   0.303   5.448  0.0542  2.0476  0.0605
  655TIP3   OH2 2393   5.250   1.645   0.489  0.4496  0.2274  0.4023
  655TIP3    H1 2394   5.320   1.678   0.544  0.9346 -0.1751  0.0369
  655TIP3    H2 2395   5.269   1.680   0.402  1.0478 -1.0853 -0.0218
  656TIP3   OH2 2396   0.711   1.898   6.026 -0.0111  0.3573  0.6622
  656TIP3    H1 2397   0.738   1.990   6.026  0.5184  0.2086  2.0806
  656TIP3    H2 2398   0.616   1.902   6.015  0.2385  0.9776 -1.5601
  657TIP3   OH2 2399   5.891   1.061   6.004 -0.2813  0.2194  0.3173
  657TIP3    H1 2400   5.850   1.011   5.934  1.4279 -0.1007 -0.4683
  657TIP3    H2 2401   5.851   1.148   5.998 -1.5051 -0.3445  0.1587
  658TIP3   OH2 2402   5.873   2.039   5.919  0.0560  0.1961  0.2548
  658TIP3    H1 2403   5.821   1.989   5.855  0.8181 -0.9971  0.5454
  658TIP3    H2 2404   5.962   2.003   5.911  0.4667  1.0338  0.9702
  659TIP3   OH2 2405   0.242   2.772   0.686 -0.2975 -0.2852  0.1655
  659TIP3    H1 2406   0.228   2.783   0.592 -0.3413 -0.2428  0.1768
  659TIP3    H2 2407   0.163   2.809   0.726  0.4531  1.2563  0.2876
  660TIP3   OH2 2408   4.259   0.676   5.806  0.1462 -0.3531  0.1053
  660TIP3    H1 2409   4.236   0.656   5.715 -0.7203 -1.8249  0.6301
  660TIP3    H2 2410   4.302   0.597   5.837  0.8149  0.3048  0.8529
  661TIP3   OH2 2411   3.606   5.398   0.026  0.1721 -0.1327 -0.2900
  661TIP3    H1 2412   3.658   5.363   0.099  0.9396  1.8456  0.1479
  661TIP3    H2 2413   3.525   5.347   0.027  0.3737 -0.4484  1.6405
  662TIP3   OH2 2414   5.689   1.961   0.941 -0.2516  0.3444 -0.0483
  662TIP3    H1 2415   5.757   2.014   0.982  0.5838  0.7933 -1.9811
  662TIP3    H2 2416   5.704   1.872   0.975  1.4846  0.3800 -0.6476
  663TIP3   OH2 2417   4.704   1.246   0.970  0.0384  0.4843  0.2260
  663TIP3    H1 2418   4.696   1.334   1.009  0.3451  0.7120 -0.2171
  663TIP3    H2 2419   4.776   1.255   0.908  1.9491 -0.8075  2.1753
  664TIP3   OH2 2420   1.910   2.174   3.927  0.1949  0.0533 -0.1458
  664TIP3    H1 2421   1.897   2.138   3.839 -2.1343 -0.0043  0.2056
  664TIP3    H2 2422   1.977   2.117   3.966 -0.6027 -1.5105 -1.0000
  665TIP3   OH2 2423   4.249   0.315   0.999 -0.2840  0.3675 -0.5493
  665TIP3    H1 2424   4.158   0.331   1.023 -0.7819 -0.4133 -1.8968
  665TIP3    H2 2425   4.284   0.402   0.978 -0.3728  0.8222  1.0759
  666TIP3   OH2 2426   0.298   5.378   0.903 -0.3126 -0.0736 -0.1173
  666TIP3    H1 2427   0.251   5.447   0.950 -1.4953  0.2477 -1.7062
  666TIP3    H2 2428   0.231   5.312   0.885  0.2604 -0.4774 -0.7915
  667TIP3   OH2 2429   5.196   0.767   5.462 -0.5696 -0.9708  0.2337
  667TIP3    H1 2430   5.251   0.748   5.386 -0.7240  1.7271 -0.6009
  667TIP3    H2 2431   5.122   0.708   5.454  0.1520 -1.7353 -0.9138
  668TIP3   OH2 2432   5.071   2.534   1.380  0.0775  0.3979 -0.1456
  668TIP3    H1 2433   5.079   2.440   1.394  1.6692  0.4147 -0.7810
  668TIP3    H2 2434   5.103   2.547   1.291  1.0523  1.6937  0.3848
  669TIP3   OH2 2435   0.603   2.479   2.561  0.1447  0.0915  0.2589
  669TIP3    H1 2436   0.687   2.436   2.548 -0.3309 -1.0254  0.8700
  669TIP3    H2 2437   0.580   2.513   2.474  1.8414  1.5540  0.3536
  670TIP3   OH2 2438   4.343   0.331   1.941 -0.2836  0.3695  0.2129
  670TIP3    H1 2439   4.361   0.348   2.033 -1.5229  2.9682  0.0180
  670TIP3    H2 2440   4.249   0.340   1.932 -0.3187 -1.0004 -1.1238
  671TIP3   OH2 2441   4.220   0.019   2.587  0.0754 -0.5037  0.1676
  671TIP3    H1 2442   4.176   0.103   2.576 -2.0261 -1.3306  1.8787
  671TIP3    H2 2443   4.287   0.035   2.654 -1.0435 -0.4299  1.2828
  672TIP3   OH2 2444   5.247   0.012   0.666  0.1576 -0.5175  0.6645
  672TIP3    H1 2445   5.192  -0.064   0.686 -1.3249  0.1234 -0.8969
  672TIP3    H2 2446   5.298  -0.015   0.590  0.9570 -0.5614  1.1974
  673TIP3   OH2 2447   5.589   5.110   4.058  1.1053  0.5484 -0.3093
  673TIP3    H1 2448   5.665   5.067   4.098  1.8716 -0.2749 -2.5520
  673TIP3    H2 2449   5.624   5.152   3.979 -0.9550 -0.8480 -2.0348
  674TIP3   OH2 2450   4.888   2.221   5.460  0.5662 -0.2448 -0.1793
  674TIP3    H1 2451   4.944   2.194   5.533  2.8530 -2.0938 -2.5134
  674TIP3    H2 2452   4.816   2.157   5.460 -0.9562  1.4245  2.1029
  675TIP3   OH2 2453   4.508   0.513   1.331  0.4735 -0.0750 -0.2667
  675TIP3    H1 2454   4.565   0.578   1.372  1.2302  0.0329 -1.4542
  675TIP3    H2 2455   4.561   0.433   1.328 -0.3458 -0.6790  0.9183
  676TIP3   OH2 2456   0.897   1.068   0.159 -0.1770  0.1380  0.4648
  676TIP3    H1 2457   0.929   1.053   0.248  1.4063  1.9456  0.2398
  676TIP3    H2 2458   0.964   1.028   0.103 -0.6891 -0.1624  0.0668
  677TIP3   OH2 2459   0.261   4.433   4.929 -0.3145  0.0352  0.1512
  677TIP3    H1 2460   0.232   4.474   5.010 -0.7776 -1.0020  0.5189
  677TIP3    H2 2461   0.352   4.461   4.919 -0.5882  1.0655  0.4410
  678TIP3   OH2 2462   0.477   1.973   2.210 -0.0128 -0.5129 -0.5222
  678TIP3    H1 2463   0.440   1.886   2.193  0.8695 -0.6723 -1.6775
  678TIP3    H2 2464   0.499   2.007   2.123  1.5417  0.0313  0.0792
  679TIP3   OH2 2465   0.550   0.269   2.462  0.5998 -0.4230 -0.0489
  679TIP3    H1 2466   0.561   0.180   2.429 -1.0852 -0.4224 -0.6670
  679TIP3    H2 2467   0.463   0.268   2.504  0.1567  1.1714 -0.9097
  680TIP3   OH2 2468   4.493   0.619   0.412  0.1764 -0.6291  0.5120
  680TIP3    H1 2469   4.415   0.566   0.399  0.0605 -0.2666 -0.2900
  680TIP3    H2 2470   4.566   0.560   0.393  0.0284 -0.3281 -1.0494
  681TIP3   OH2 2471   4.640   5.461   3.240 -0.6800  0.0942  0.1024
  681TIP3    H1 2472   4.728   5.432   3.216 -0.5285  0.6810 -0.0606
  681TIP3    H2 2473   4.624   5.423   3.326  0.6596  1.9223  1.1906
  682TIP3   OH2 2474   5.544   1.590   1.382  0.2097  0.3216  0.1036
  682TIP3    H1 2475   5.530   1.608   1.475 -0.5408  1.4287 -0.2163
  682TIP3    H2 2476   5.574   1.673   1.346 -0.0983  0.0574 -0.7719
  683TIP3   OH2 2477   0.275   2.202   0.712 -0.0838  0.0214 -0.2492
  683TIP3    H1 2478   0.322   2.231   0.633 -0.4631 -1.2231 -0.9297
  683TIP3    H2 2479   0.193   2.252   0.710  0.7536  1.4663  0.4207
  684TIP3   OH2 2480   0.086   1.067   0.661  0.0014  0.3307 -0.3019
  684TIP3    H1 2481   0.064   0.999   0.598 -2.1655  0.5306  0.1949
  684TIP3    H2 2482   0.096   1.021   0.744 -1.5914  0.5911  0.0602
  685TIP3   OH2 2483   0.131   0.737   5.263  0.3898 -0.2611  0.3162
  685TIP3    H1 2484   0.055   0.767   5.313  2.2727  1.8217  2.0446
  685TIP3    H2 2485   0.105   0.749   5.171 -2.0219 -1.3698  0.7966
  686TIP3   OH2 2486   1.778   1.250   3.151 -0.3699  0.1769  0.3488
  686TIP3    H1 2487   1.724   1.329   3.158 -0.2115  0.3250 -0.0289
  686TIP3    H2 2488   1.740   1.189   3.214 -0.6312  0.4774  0.4872
  687TIP3   OH2 2489   0.630   1.359   5.612 -0.2854  0.1926  0.4762
  687TIP3    H1 2490   0.691   1.413   5.561  0.0076 -0.3177  0.2787
  687TIP3    H2 2491   0.548   1.363   5.563 -0.1639  0.1707  0.2683
  688TIP3   OH2 2492   1.418   0.667   2.911  0.5972  0.0564  0.0017
  688TIP3    H1 2493   1.455   0.701   2.830  0.7111 -0.3947 -0.1361
  688TIP3    H2 2494   1.345   0.725   2.931  0.8910  0.4769 -0.1501
  689TIP3   OH2 2495   2.242   2.197   1.238 -0.7128 -0.5833 -0.0953
  689TIP3    H1 2496   2.319   2.157   1.275  1.5331  1.2605 -2.5477
  689TIP3    H2 2497   2.192   2.124   1.200  0.1932 -1.6804  0.8044
  690TIP3   OH2 2498   0.343   4.308   1.202  0.4030 -0.6669 -0.4331
  690TIP3    H1 2499   0.382   4.223   1.184  0.4042 -0.2817 -2.4094
  690TIP3    H2 2500   0.249   4.294   1.192  0.4052 -0.4295 -0.8006
  691TIP3   OH2 2501   0.779   2.001   0.585 -0.0594 -0.6517  0.0744
  691TIP3    H1 2502   0.868   2.023   0.614 -0.6759  1.3380  0.5350
  691TIP3    H2 2503   0.784   2.000   0.490 -0.2812  2.9908 -0.0464
  692TIP3   OH2 2504   0.868   3.403   1.622 -0.5587  0.3862 -0.2556
  692TIP3    H1 2505   0.914   3.320   1.612 -0.4100  0.2992  1.0152
  692TIP3    H2 2506   0.916   3.464   1.567  0.1543 -0.0669 -0.1468
  693TIP3   OH2 2507   1.412   1.840   2.496 -0.2969  0.8983  0.1827
  693TIP3    H1 2508   1.408   1.804   2.408 -0.7125  3.3282 -0.8107
  693TIP3    H2 2509   1.321   1.864   2.516 -0.1680  0.5656  1.1983
  694TIP3   OH2 2510   5.820   4.294   0.985 -0.7221 -0.6426 -0.0339
  694TIP3    H1 2511   5.758   4.270   1.054  0.3417 -1.7784  0.5287
  694TIP3    H2 2512   5.850   4.211   0.949  0.4107 -0.0975 -0.3641
  695TIP3   OH2 2513   5.305   4.596   3.133  0.2745 -0.4556  0.4994
  695TIP3    H1 2514   5.297   4.629   3.044  0.3902  0.1252  0.7014
  695TIP3    H2 2515   5.399   4.600   3.152  0.1637  0.2135  0.9384
  696TIP3   OH2 2516   3.803   1.195   4.458  0.4656  0.5046 -0.3115
  696TIP3    H1 2517   3.710   1.210   4.473  0.2903 -0.9496  0.2219
  696TIP3    H2 2518   3.839   1.179   4.546  0.9230 -0.3914 -0.6523
  697TIP3   OH2 2519   0.768   2.697   0.934  0.3540 -0.5331  0.2578
  697TIP3    H1 2520   0.777   2.667   0.844  0.9621  1.2339 -0.2953
  697TIP3    H2 2521   0.737   2.787   0.926  0.7113 -0.2647  1.8031
  698TIP3   OH2 2522   1.234   0.675   1.246  0.0880  0.3524  0.2077
  698TIP3    H1 2523   1.181   0.618   1.301  1.7920  0.4203  1.9724
  698TIP3    H2 2524   1.274   0.616   1.182  0.2951 -0.1325  0.7834
  699TIP3   OH2 2525   0.133   2.755   1.079 -0.4359 -0.0800  0.5524
  699TIP3    H1 2526   0.068   2.701   1.124  1.2541 -0.5025  2.5653
  699TIP3    H2 2527   0.195   2.779   1.148  1.1691  0.8797 -1.2027
  700TIP3   OH2 2528   0.449   2.314   2.332 -0.4086  0.5452  0.3454
  700TIP3    H1 2529   0.404   2.339   2.413 -1.1051 -0.8805  0.3999
  700TIP3    H2 2530   0.535   2.285   2.361 -1.3080 -1.8022  0.8143
  701TIP3   OH2 2531   0.327   4.726   0.282 -0.1030 -0.3124  0.6809
  701TIP3    H1 2532   0.293   4.636   0.288  0.3829 -0.7220 -2.0003
  701TIP3    H2 2533   0.257   4.781   0.316 -1.2534 -1.5510  0.3322
  702TIP3   OH2 2534   0.393   3.542   2.120 -0.6635 -0.4002 -0.5992
  702TIP3    H1 2535   0.366   3.559   2.030 -1.1665  0.7718 -0.2383
  702TIP3    H2 2536   0.316   3.502   2.161 -0.9294  0.4037 -0.3068
  703TIP3   OH2 2537   0.768   3.395   1.897  0.0040  0.1755 -0.0161
  703TIP3    H1 2538   0.683   3.354   1.910  1.6224 -3.4219  0.0464
  703TIP3    H2 2539   0.792   3.371   1.808  1.3820  0.2762  0.3183
  704TIP3   OH2 2540   0.144   0.608   0.845 -0.6698 -0.1739  0.0572
  704TIP3    H1 2541   0.197   0.685   0.825 -1.0212  0.0147 -0.1529
  704TIP3    H2 2542   0.190   0.566   0.918 -0.6098  0.3696  0.3360
  705TIP3   OH2 2543   0.637   3.129   1.857 -0.4262  0.4022 -0.6859
  705TIP3    H1 2544   0.663   3.041   1.833 -3.2498 -0.2880 -1.3625
  705TIP3    H2 2545   0.666   3.184   1.784  0.8367 -0.0298 -0.5167
  706TIP3   OH2 2546   3.993   5.937   5.849  0.2918 -0.2001 -0.4009
  706TIP3    H1 2547   4.015   5.939   5.756  2.2624  0.6438  0.0691
  706TIP3    H2 2548   4.046   5.866   5.885 -2.1690 -2.0444 -0.3130
  707TIP3   OH2 2549   0.601   3.252   2.393 -0.8353 -0.4291 -0.3644
  707TIP3    H1 2550   0.610   3.158   2.406 -0.8381 -0.1626  1.7903
  707TIP3    H2 2551   0.531   3.277   2.453 -1.0864  0.8973 -1.1932
  708TIP3   OH2 2552   1.112   4.142   2.960  0.0536 -0.1642 -0.1424
  708TIP3    H1 2553   1.113   4.220   2.905  1.3834 -0.2984 -0.3288
  708TIP3    H2 2554   1.110   4.069   2.898 -1.3306 -0.2896  0.0318
  709TIP3   OH2 2555   2.012   2.240   2.249 -0.4891 -0.5889  0.7910
  709TIP3    H1 2556   1.993   2.148   2.231 -1.9582 -0.4040  1.2534
  709TIP3    H2 2557   1.931   2.273   2.288 -0.2954  1.1374 -0.2162
  710TIP3   OH2 2558   4.955   4.592   0.681 -0.0539 -0.4532  0.2291
  710TIP3    H1 2559   4.993   4.660   0.625 -0.3068 -1.0025 -0.6238
  710TIP3    H2 2560   4.865   4.582   0.649 -0.3835 -0.3737  1.1116
  711TIP3   OH2 2561   1.249   5.841   1.848  0.1604 -0.1915  0.6270
  711TIP3    H1 2562   1.338   5.816   1.872  0.7842  1.6526  0.2619
  711TIP3    H2 2563   1.203   5.850   1.932  0.3916 -0.8574  0.8245
  712TIP3   OH2 2564   4.675   2.244   0.920 -0.6710  0.5586  0.8313
  712TIP3    H1 2565   4.754   2.271   0.874 -1.1990  2.5265  1.0646
  712TIP3    H2 2566   4.603   2.281   0.869 -1.3841  0.2412  1.5970
  713TIP3   OH2 2567   1.097   3.554   1.870  0.1672 -1.0533 -0.2052
  713TIP3    H1 2568   1.149   3.480   1.839 -1.2990 -1.7016 -1.1977
  713TIP3    H2 2569   1.074   3.602   1.791  1.7399  0.9179  0.5035
  714TIP3   OH2 2570   1.453   1.185   6.038 -0.3923 -0.2692  0.3834
  714TIP3    H1 2571   1.429   1.266   5.993 -0.1216 -0.0025  0.7215
  714TIP3    H2 2572   1.501   1.213   6.116  0.9084 -0.7839 -0.2005
  715TIP3   OH2 2573   5.522   5.847   2.372  1.0088  0.1451  0.2389
  715TIP3    H1 2574   5.429   5.853   2.396  1.1548 -0.0635  0.8648
  715TIP3    H2 2575   5.540   5.753   2.370  1.6707  0.2208  1.9440
  716TIP3   OH2 2576   1.961   2.787   1.369  0.0260  0.1095  0.1013
  716TIP3    H1 2577   1.872   2.819   1.356 -0.3071 -0.7504  0.2438
  716TIP3    H2 2578   1.950   2.701   1.408  0.9282  0.1179  0.3886
  717TIP3   OH2 2579   1.382   0.584   1.847  0.0542  0.0397 -0.1653
  717TIP3    H1 2580   1.357   0.645   1.917 -1.8247 -1.6648  0.6961
  717TIP3    H2 2581   1.369   0.634   1.766 -0.6446  1.0735  0.5716
  718TIP3   OH2 2582   5.503   5.509   1.772 -0.0783  0.3463  0.4324
  718TIP3    H1 2583   5.448   5.494   1.695  0.2917 -1.7433  0.5296
  718TIP3    H2 2584   5.577   5.561   1.740 -0.5740  0.5769 -0.3491
  719TIP3   OH2 2585   5.913   3.031   1.975 -0.0036 -0.0459 -0.3737
  719TIP3    H1 2586   5.818   3.033   1.967 -0.1235  0.9943  1.1209
  719TIP3    H2 2587   5.942   3.117   1.943  0.4121 -0.2579 -0.5737
  720TIP3   OH2 2588   0.296   4.235   2.097  0.3612  0.4189  0.1709
  720TIP3    H1 2589   0.225   4.244   2.161  0.1991 -1.7165  0.3170
  720TIP3    H2 2590   0.304   4.141   2.082  2.6362  0.6709 -0.4546
  721TIP3   OH2 2591   5.534   5.343   3.531 -0.1793 -0.2558  0.6087
  721TIP3    H1 2592   5.526   5.434   3.504 -0.0745  0.2767  2.3115
  721TIP3    H2 2593   5.607   5.308   3.481  0.8218  1.0585  1.1510
  722TIP3   OH2 2594   2.002   2.495   1.758 -0.1779 -0.1096  0.2273
  722TIP3    H1 2595   2.046   2.575   1.787 -2.9445  0.6920  2.5103
  722TIP3    H2 2596   2.030   2.428   1.820  0.2396 -0.3355 -0.2041
  723TIP3   OH2 2597   1.601   3.621   3.497 -0.1539  0.2042  0.3015
  723TIP3    H1 2598   1.629   3.558   3.431 -0.7752 -0.6767  0.8711
  723TIP3    H2 2599   1.679   3.673   3.515  0.0597  0.3322 -0.9991
  724TIP3   OH2 2600   2.897   3.560   0.357 -0.5756  0.1632  0.0571
  724TIP3    H1 2601   2.816   3.559   0.308 -0.6692 -4.3065  0.0559
  724TIP3    H2 2602   2.964   3.534   0.294  0.3074  0.5673  0.8127
  725TIP3   OH2 2603   0.593   5.449   1.355  0.2660 -0.5742 -0.0783
  725TIP3    H1 2604   0.555   5.484   1.275  3.2990  1.0728 -0.9129
  725TIP3    H2 2605   0.588   5.522   1.417 -1.5918 -1.6699  1.0894
  726TIP3   OH2 2606   6.075   3.192   2.773  0.7042  0.1238  0.0376
  726TIP3    H1 2607   6.073   3.104   2.809 -0.7095 -0.2393 -0.8956
  726TIP3    H2 2608   6.145   3.236   2.821  2.9918 -2.1807 -1.0910
  727TIP3   OH2 2609   0.915   4.301   1.389 -0.7166  0.3629 -0.3115
  727TIP3    H1 2610   0.934   4.373   1.450 -0.5713 -2.1025  2.6734
  727TIP3    H2 2611   0.850   4.247   1.434 -0.2469 -1.8010 -2.1183
  728TIP3   OH2 2612   3.633   2.782   3.320  0.2479 -0.0529  0.4412
  728TIP3    H1 2613   3.573   2.849   3.353  0.2244 -0.5013  1.3233
  728TIP3    H2 2614   3.625   2.709   3.381  2.8865  0.5001  1.5373
  729TIP3   OH2 2615   0.628   1.550   1.588  0.1276  0.3579 -0.4941
  729TIP3    H1 2616   0.693   1.572   1.655 -1.1269 -0.2088  0.9239
  729TIP3    H2 2617   0.645   1.459   1.566  0.1412  0.3630 -0.5059
  730TIP3   OH2 2618   0.135   3.413   2.469 -0.3788  0.0152 -0.5964
  730TIP3    H1 2619   0.186   3.341   2.507 -0.2129 -1.2190 -3.0430
  730TIP3    H2 2620   0.049   3.406   2.511  0.0183 -0.8408  0.0978
  731TIP3   OH2 2621   3.600   4.675   5.684 -0.6346 -0.0579  0.0793
  731TIP3    H1 2622   3.655   4.644   5.756 -0.1571  0.4304 -0.0731
  731TIP3    H2 2623   3.514   4.689   5.723 -0.2876  0.5382  0.6298
  732TIP3   OH2 2624   2.063   5.313   0.534 -0.3609  0.4655  0.5688
  732TIP3    H1 2625   2.005   5.300   0.608  0.2508  0.2608  1.0157
  732TIP3    H2 2626   2.148   5.331   0.573 -0.1932  1.1040 -0.0731
  733TIP3   OH2 2627   1.217   2.626   5.380  0.4783 -0.0515 -0.7528
  733TIP3    H1 2628   1.197   2.616   5.287 -2.4271 -0.2743 -0.1731
  733TIP3    H2 2629   1.224   2.721   5.393 -0.9808  0.0934 -0.8893
  734TIP3   OH2 2630   4.530   3.753   0.043  0.1430 -0.7409 -0.5391
  734TIP3    H1 2631   4.532   3.787  -0.047  1.5175  0.6385 -0.0044
  734TIP3    H2 2632   4.478   3.817   0.091  3.4757  1.1267  0.6625
  735TIP3   OH2 2633   1.770   4.347   1.274 -0.1386 -0.0930 -0.0355
  735TIP3    H1 2634   1.802   4.330   1.185  1.5225  0.4331  0.4440
  735TIP3    H2 2635   1.692   4.401   1.261  0.2258  0.1801 -1.1666
  736TIP3   OH2 2636   1.040   4.279   4.740 -0.0112  0.5145  0.2418
  736TIP3    H1 2637   1.076   4.364   4.764  1.5843  0.3344 -1.4549
  736TIP3    H2 2638   1.057   4.270   4.647  2.8955 -3.0500  0.9665
  737TIP3   OH2 2639   0.308   1.873   1.815  0.4129 -0.1615  0.2064
  737TIP3    H1 2640   0.377   1.830   1.765  0.5161  0.4749 -0.2035
  737TIP3    H2 2641   0.332   1.966   1.814 -0.2108  0.0030  0.4394
  738TIP3   OH2 2642   1.940   1.898   1.768  0.1068  0.1143 -0.4401
  738TIP3    H1 2643   2.003   1.969   1.752  0.0203  0.0823 -0.9304
  738TIP3    H2 2644   1.984   1.840   1.830  1.5737 -1.2257 -2.6527
  739TIP3   OH2 2645   1.659   1.917   0.959 -0.5709 -0.1292  0.5237
  739TIP3    H1 2646   1.619   2.004   0.966  0.1322  0.2499 -0.1163
  739TIP3    H2 2647   1.753   1.934   0.966 -0.4584 -0.8869  0.8038
  740TIP3   OH2 2648   0.498   3.335   1.734 -0.0829 -0.2576  0.1110
  740TIP3    H1 2649   0.452   3.382   1.803  0.3089  1.2303 -0.6138
  740TIP3    H2 2650   0.434   3.272   1.701 -1.0320  0.5847  0.2983
  741TIP3   OH2 2651   1.674   1.810   5.291  0.0797 -0.2204  0.4870
  741TIP3    H1 2652   1.634   1.814   5.378 -0.5691 -0.3974  0.1998
  741TIP3    H2 2653   1.708   1.721   5.283 -0.4875 -0.4232  0.2885
  742TIP3   OH2 2654   2.256   0.835   1.096  0.0971 -0.3833  0.0905
  742TIP3    H1 2655   2.234   0.884   1.175  2.0549  0.0939  0.3649
  742TIP3    H2 2656   2.211   0.881   1.025  0.1664  0.5339  0.6411
  743TIP3   OH2 2657   1.815   3.647   3.966  0.2809 -0.5990 -0.3239
  743TIP3    H1 2658   1.725   3.621   3.984  0.0146 -0.8480 -1.9665
  743TIP3    H2 2659   1.809   3.716   3.901  1.2047  0.6418  0.8793
  744TIP3   OH2 2660   5.292   2.468   1.787  0.1555 -0.4911 -0.4916
  744TIP3    H1 2661   5.360   2.507   1.732  1.0406  3.0152  2.8711
  744TIP3    H2 2662   5.220   2.532   1.785  0.6259  0.2845  3.1324
  745TIP3   OH2 2663   1.216   5.417   0.538 -0.5371 -0.2098  0.0316
  745TIP3    H1 2664   1.284   5.423   0.605 -0.2727  1.3660 -0.3441
  745TIP3    H2 2665   1.213   5.324   0.515 -0.6120 -0.7695  2.1875
  746TIP3   OH2 2666   0.588   1.625   2.471 -0.2641 -0.9085 -0.0480
  746TIP3    H1 2667   0.523   1.640   2.540  0.3177  1.1776  0.0844
  746TIP3    H2 2668   0.666   1.595   2.517  0.4055  1.3272  0.3429
  747TIP3   OH2 2669   5.199   3.924   0.522 -0.4670  0.1425 -0.0407
  747TIP3    H1 2670   5.236   3.954   0.439 -0.3005  1.2478  0.4247
  747TIP3    H2 2671   5.247   3.973   0.589 -2.4726  1.2911  0.5886
  748TIP3   OH2 2672   2.269   0.360   3.864  0.9320  0.0439  0.6210
  748TIP3    H1 2673   2.189   0.367   3.812  1.1574 -0.8140  0.1409
  748TIP3    H2 2674   2.240   0.329   3.949  0.7291 -0.0227  0.5280
  749TIP3   OH2 2675   2.628   3.048   2.556  0.4189 -0.2936  0.3089
  749TIP3    H1 2676   2.626   3.115   2.488  0.2616 -1.7877 -1.1967
  749TIP3    H2 2677   2.711   3.003   2.543 -0.3065 -1.5942  0.1053
  750TIP3   OH2 2678   0.706   1.561   0.194  0.2032 -0.1748 -0.5064
  750TIP3    H1 2679   0.763   1.617   0.140 -0.5279  1.6748  0.5769
  750TIP3    H2 2680   0.728   1.472   0.167  2.9687  0.5221 -0.7660
  751TIP3   OH2 2681   0.483   2.711   0.173  0.7024 -0.5362  0.1474
  751TIP3    H1 2682   0.568   2.749   0.198  2.1353 -2.9853 -0.7358
  751TIP3    H2 2683   0.464   2.649   0.243  0.8170 -1.6734 -0.8130
  752TIP3   OH2 2684   0.426   2.303   0.487 -0.1905 -0.1419  0.4341
  752TIP3    H1 2685   0.498   2.257   0.531  0.8507 -1.0133 -2.0334
  752TIP3    H2 2686   0.433   2.275   0.396 -2.9452  0.7160 -0.0921
  753TIP3   OH2 2687   1.374   2.642   0.503 -0.5997  0.6452 -0.8945
  753TIP3    H1 2688   1.309   2.703   0.467  0.2149  3.5728  2.3401
  753TIP3    H2 2689   1.439   2.698   0.545  0.9080 -2.4442  1.0762
  754TIP3   OH2 2690   0.417   2.064   0.930 -0.9228 -0.1644  0.0235
  754TIP3    H1 2691   0.355   2.126   0.892 -0.0464  0.7508  0.0674
  754TIP3    H2 2692   0.489   2.061   0.867 -0.4140 -0.2232  0.6038
  755TIP3   OH2 2693   0.694   3.375   1.106  0.2055 -0.5703  0.4574
  755TIP3    H1 2694   0.742   3.292   1.108  0.7026 -0.2682  1.4630
  755TIP3    H2 2695   0.665   3.384   1.016  0.2454 -1.7870  0.3102
  756TIP3   OH2 2696   1.416   3.912   2.297 -0.3274 -0.3985  0.5267
  756TIP3    H1 2697   1.507   3.891   2.316 -0.0933 -0.5389 -0.6809
  756TIP3    H2 2698   1.380   3.941   2.380  1.2935  1.3072  0.6695
  757TIP3   OH2 2699   0.558   4.125   5.648  0.2974  0.0926  0.2660
  757TIP3    H1 2700   0.586   4.084   5.567 -1.8721  0.0651 -0.5103
  757TIP3    H2 2701   0.525   4.211   5.621  1.4070  0.9026  1.3951
  758TIP3   OH2 2702   1.745   0.735   1.667  0.2890  0.0544 -0.4247
  758TIP3    H1 2703   1.802   0.662   1.693  1.6015  0.3232 -2.4299
  758TIP3    H2 2704   1.805   0.803   1.638 -1.0080  1.0028 -0.9202
  759TIP3   OH2 2705   0.355   0.593   5.606  0.1855  0.0676 -0.1049
  759TIP3    H1 2706   0.310   0.581   5.522  0.2517  1.2856 -0.3164
  759TIP3    H2 2707   0.448   0.591   5.584  0.2062 -0.0375 -0.0059
  760TIP3   OH2 2708   0.445   3.169   4.057  0.7296  0.2920  0.4017
  760TIP3    H1 2709   0.383   3.239   4.036  0.7648  1.2214  3.1744
  760TIP3    H2 2710   0.518   3.184   3.997 -0.4839  0.9069 -0.9562
  761TIP3   OH2 2711   1.477   1.904   0.651 -0.2878 -0.4233  0.2376
  761TIP3    H1 2712   1.555   1.959   0.659  0.1174 -0.9750  0.0895
  761TIP3    H2 2713   1.507   1.817   0.678 -1.3797 -0.1904  2.3344
  762TIP3   OH2 2714   3.843   1.549   0.506 -0.6238  0.1456 -0.3194
  762TIP3    H1 2715   3.848   1.501   0.423  0.9357 -0.7827  0.2731
  762TIP3    H2 2716   3.932   1.542   0.542 -1.1442  1.0092  1.1658
  763TIP3   OH2 2717   0.420   2.453   0.922 -0.0817 -0.5165  0.3673
  763TIP3    H1 2718   0.432   2.547   0.905  1.0428 -0.7368 -0.0783
  763TIP3    H2 2719   0.505   2.414   0.903 -0.1047 -1.4327  2.0734
  764TIP3   OH2 2720   1.611   2.791   4.524  0.0171 -0.2250  0.2123
  764TIP3    H1 2721   1.643   2.879   4.501  0.2031 -0.4682 -0.4885
  764TIP3    H2 2722   1.585   2.753   4.440 -0.3546 -0.7274  0.5528
  765TIP3   OH2 2723   0.219   2.843   5.650 -0.7552  0.2783  0.1429
  765TIP3    H1 2724   0.193   2.887   5.731 -0.7839 -0.5070  0.5585
  765TIP3    H2 2725   0.137   2.821   5.607 -0.7942 -1.5060  1.0835
  766TIP3   OH2 2726   2.152   4.458   2.513 -0.4575  0.0097 -0.1058
  766TIP3    H1 2727   2.136   4.545   2.550  0.2595  0.4944 -0.9131
  766TIP3    H2 2728   2.106   4.458   2.430 -1.9140 -1.0200  0.6843
  767TIP3   OH2 2729   0.346   2.673   1.306 -0.4762  0.0980  0.1864
  767TIP3    H1 2730   0.303   2.588   1.316  1.8593 -0.9655  1.7053
  767TIP3    H2 2731   0.323   2.721   1.386 -1.2603  0.6735 -0.3735
  768TIP3   OH2 2732   5.353   1.446   1.080  0.2213  0.6187 -0.0915
  768TIP3    H1 2733   5.443   1.434   1.050  0.3222 -2.0391  1.0874
  768TIP3    H2 2734   5.300   1.396   1.018 -0.3684  1.5651 -0.3556
  769TIP3   OH2 2735   1.632   2.421   5.953  0.2775  0.6898  0.0444
  769TIP3    H1 2736   1.647   2.333   5.986  0.9332  1.1976  1.1188
  769TIP3    H2 2737   1.567   2.459   6.013  0.2907  1.0684 -0.1781
  770TIP3   OH2 2738   5.944   3.301   1.533 -0.4364 -0.4095  0.1788
  770TIP3    H1 2739   5.905   3.364   1.473 -0.5378  0.1462  0.8141
  770TIP3    H2 2740   6.025   3.344   1.562 -0.1595 -0.8709  0.0787
  771TIP3   OH2 2741   1.541   3.689   5.011 -0.4687  0.2538 -0.3764
  771TIP3    H1 2742   1.631   3.667   5.035 -1.2501 -0.7983  1.7520
  771TIP3    H2 2743   1.537   3.784   5.019  0.3312  0.2621  0.0234
  772TIP3   OH2 2744   4.597   3.662   1.258  0.0087  0.1354 -0.5487
  772TIP3    H1 2745   4.672   3.602   1.258  0.0283 -0.0153  4.0823
  772TIP3    H2 2746   4.524   3.607   1.286 -1.0189  1.2299 -1.0572
  773TIP3   OH2 2747   1.361   3.391   1.059 -0.1919  0.0717 -0.5071
  773TIP3    H1 2748   1.382   3.298   1.052 -1.6288 -0.3091 -0.0366
  773TIP3    H2 2749   1.385   3.414   1.149 -1.2382 -0.2308 -0.1405
  774TIP3   OH2 2750   3.302   2.541   1.234  0.1351  0.1496  0.1656
  774TIP3    H1 2751   3.299   2.520   1.327 -0.6603 -0.2853  0.0414
  774TIP3    H2 2752   3.211   2.556   1.209  0.3324  0.1475 -0.5673
  775TIP3   OH2 2753   0.955   4.712   0.025  0.2082 -0.2685 -0.0612
  775TIP3    H1 2754   1.037   4.676   0.058  1.9020  1.8377 -1.7936
  775TIP3    H2 2755   0.905   4.732   0.104  1.4048 -1.4417  1.0314
  776TIP3   OH2 2756   4.875   3.874   1.243  0.0496 -0.6160  0.0383
  776TIP3    H1 2757   4.904   3.879   1.152  3.5309 -1.7187  0.9897
  776TIP3    H2 2758   4.909   3.790   1.274 -0.9288 -0.1682  2.3962
  777TIP3   OH2 2759   1.061   3.993   4.423  0.1439  0.1631  0.0896
  777TIP3    H1 2760   1.103   3.977   4.507 -0.6423  0.6893  0.5918
  777TIP3    H2 2761   0.971   3.965   4.435 -0.0429  0.4956 -0.4916
  778TIP3   OH2 2762   5.113   2.485   4.297  0.0463  0.9397  0.5421
  778TIP3    H1 2763   5.141   2.399   4.267 -0.2798  0.4915  1.5054
  778TIP3    H2 2764   5.020   2.475   4.317 -0.7453  2.2806 -2.1359
  779TIP3   OH2 2765   0.227   1.852   1.152 -0.0264 -0.3651 -0.3307
  779TIP3    H1 2766   0.302   1.878   1.099 -0.8974  1.7991 -0.5694
  779TIP3    H2 2767   0.154   1.850   1.091 -0.7987  0.9214  0.5014
  780TIP3   OH2 2768   0.953   4.427   5.778  0.7057  0.6727 -0.4928
  780TIP3    H1 2769   0.875   4.378   5.805  0.0270  1.4310 -1.0541
  780TIP3    H2 2770   1.004   4.437   5.859  0.7535 -0.7715 -0.3426
  781TIP3   OH2 2771   1.782   3.807   5.264 -0.3475  0.3545  0.2523
  781TIP3    H1 2772   1.693   3.788   5.294 -0.2824 -0.0407  0.1957
  781TIP3    H2 2773   1.775   3.894   5.224 -0.2364  1.2926  2.2234
  782TIP3   OH2 2774   0.587   3.567   1.299  0.1892 -0.2067 -0.1534
  782TIP3    H1 2775   0.620   3.535   1.383  2.8566  1.6340 -0.4347
  782TIP3    H2 2776   0.628   3.512   1.233  0.3762  0.2055 -0.3830
  783TIP3   OH2 2777   5.843   1.593   0.804  0.1476  0.0029 -0.6113
  783TIP3    H1 2778   5.883   1.614   0.720  1.0354  1.1178  0.0839
  783TIP3    H2 2779   5.902   1.529   0.843  0.4790  0.5399 -0.2281
  784TIP3   OH2 2780   0.458   3.902   1.576 -0.0761 -0.6179  0.2347
  784TIP3    H1 2781   0.454   3.994   1.602  1.3882 -0.5186  0.1987
  784TIP3    H2 2782   0.461   3.905   1.480  1.5285 -0.5986  0.2655
  785TIP3   OH2 2783   0.010   5.700   1.445  0.8571  0.1296 -0.1639
  785TIP3    H1 2784   0.082   5.751   1.484  0.8195  1.4138 -1.7483
  785TIP3    H2 2785  -0.008   5.631   1.510 -0.8144  3.6107  3.2634
  786TIP3   OH2 2786   5.142   4.189   6.019 -0.5079 -0.7174  0.1967
  786TIP3    H1 2787   5.162   4.133   5.943  0.2674  0.2031 -0.2886
  786TIP3    H2 2788   5.145   4.278   5.984  1.3826 -0.1832  1.6429
  787TIP3   OH2 2789   0.272   4.676   1.125 -0.3511 -0.4735 -0.3541
  787TIP3    H1 2790   0.307   4.764   1.109 -2.0018  0.3821  0.5498
  787TIP3    H2 2791   0.314   4.621   1.059  0.0215  1.1673 -1.5256
  788TIP3   OH2 2792   1.588   5.132   1.056 -0.1614 -0.2462  0.2306
  788TIP3    H1 2793   1.562   5.076   1.129  0.8976 -1.2858 -0.1811
  788TIP3    H2 2794   1.663   5.182   1.088  0.8126 -1.2888 -0.3999
  789TIP3   OH2 2795   2.907   2.365   1.343 -0.2479  0.6294  0.0627
  789TIP3    H1 2796   2.815   2.386   1.361 -0.3858  0.6900 -0.6847
  789TIP3    H2 2797   2.905   2.276   1.307 -0.1903  1.2062 -1.4232
  790TIP3   OH2 2798   0.879   2.216   0.984 -0.7948  0.4591  0.3953
  790TIP3    H1 2799   0.881   2.122   0.997  0.1481  0.2986 -0.8176
  790TIP3    H2 2800   0.963   2.237   0.944 -0.9272  1.8400  0.7945
  791TIP3   OH2 2801   0.348   3.407   0.631  0.6097 -0.5589 -0.1429
  791TIP3    H1 2802   0.337   3.373   0.720 -0.7195 -0.9170 -0.4284
  791TIP3    H2 2803   0.259   3.430   0.603  0.9928 -0.6122 -1.4364
  792TIP3   OH2 2804   2.663   4.154   0.690 -0.0490  0.2671 -0.3539
  792TIP3    H1 2805   2.672   4.068   0.649  0.4376  0.5959 -0.9403
  792TIP3    H2 2806   2.649   4.135   0.783  1.3857 -0.4082 -0.2668
  793TIP3   OH2 2807   1.344   3.370   0.509  0.3360 -0.6659  0.0456
  793TIP3    H1 2808   1.389   3.438   0.460  1.3945 -0.6124  1.0885
  793TIP3    H2 2809   1.251   3.388   0.494  0.6133  0.6186 -0.1928
  794TIP3   OH2 2810   0.421   3.449   3.529 -0.0069  0.1999 -0.2612
  794TIP3    H1 2811   0.516   3.451   3.515 -0.1078 -1.7855 -1.3607
  794TIP3    H2 2812   0.383   3.442   3.442 -1.1985  1.4842  0.1387
  795TIP3   OH2 2813   1.733   1.528   5.926 -0.3043 -0.3380 -0.3573
  795TIP3    H1 2814   1.794   1.456   5.939 -0.4267 -0.3654  0.0845
  795TIP3    H2 2815   1.777   1.587   5.865  0.8157  0.4032  1.1168
  796TIP3   OH2 2816   1.989   4.221   2.555 -0.5080 -0.5615 -0.0244
  796TIP3    H1 2817   1.933   4.227   2.478 -0.1883  1.9985 -0.0852
  796TIP3    H2 2818   2.064   4.276   2.535  0.5129 -1.4016  1.3568
  797TIP3   OH2 2819   1.058   1.588   1.753  0.1190 -0.0634 -0.1668
  797TIP3    H1 2820   1.073   1.659   1.690 -0.0649  0.7186  0.6579
  797TIP3    H2 2821   1.025   1.516   1.701 -0.6376  0.7900 -0.8832
  798TIP3   OH2 2822   5.052   2.855   0.208  0.6648  0.0718  0.1408
  798TIP3    H1 2823   4.982   2.790   0.208 -2.3061  3.1559  1.5259
  798TIP3    H2 2824   5.028   2.916   0.138  1.5779  1.5042  1.0427
  799TIP3   OH2 2825   5.489   2.956   0.485 -0.5967  0.5448  0.7318
  799TIP3    H1 2826   5.412   2.973   0.431 -1.6639 -0.8460  1.7952
  799TIP3    H2 2827   5.481   3.017   0.558  0.1388  1.4830  0.0412
  800TIP3   OH2 2828   5.908   3.673   2.509 -0.4401 -0.1475 -0.0466
  800TIP3    H1 2829   5.934   3.589   2.546 -2.3493 -0.0847  1.4772
  800TIP3    H2 2830   5.830   3.698   2.558  0.1305  2.5490 -0.4203
  801TIP3   OH2 2831   5.263   3.823   1.346 -0.5189 -0.4950  0.1518
  801TIP3    H1 2832   5.235   3.911   1.321 -2.1257 -0.9750  0.2050
  801TIP3    H2 2833   5.327   3.837   1.416  1.1011  0.7093 -1.5279
  802TIP3   OH2 2834   1.343   4.969   2.121  0.1446  0.6752  0.4414
  802TIP3    H1 2835   1.423   5.015   2.094  0.6695 -0.5383 -0.0971
  802TIP3    H2 2836   1.289   5.037   2.162  0.3553  2.0635 -1.4961
  803TIP3   OH2 2837   0.257   5.204   6.075 -0.3646  0.5289 -0.7278
  803TIP3    H1 2838   0.213   5.220   5.992 -1.5867 -0.0255 -0.2052
  803TIP3    H2 2839   0.238   5.283   6.127 -0.8633  0.2454 -0.4661
  804TIP3   OH2 2840   5.659   4.449   2.156  0.7645  0.5375  0.4293
  804TIP3    H1 2841   5.607   4.388   2.104  0.1940 -0.7491  2.4645
  804TIP3    H2 2842   5.742   4.455   2.109 -0.3295  0.7459 -1.5464
  805TIP3   OH2 2843   0.735   4.209   1.577  0.2512  0.6319  0.0499
  805TIP3    H1 2844   0.665   4.166   1.527 -1.5507  1.6149  1.6971
  805TIP3    H2 2845   0.781   4.137   1.620 -1.2077  0.1552  0.8225
  806TIP3   OH2 2846   5.368   2.061   3.596  0.5430 -0.2941 -0.0560
  806TIP3    H1 2847   5.452   2.056   3.551  0.4694 -0.2129 -0.2062
  806TIP3    H2 2848   5.351   1.972   3.627 -0.0063 -0.6332 -1.2964
  807TIP3   OH2 2849   1.551   0.463   5.918  0.1315  0.0125 -0.3273
  807TIP3    H1 2850   1.507   0.380   5.937  0.2614 -0.2794 -1.2840
  807TIP3    H2 2851   1.486   0.514   5.870  0.9093 -0.5234 -1.9833
  808TIP3   OH2 2852   1.810   2.284   2.417  0.0170 -0.0852 -0.4702
  808TIP3    H1 2853   1.830   2.268   2.510  0.8629  1.3337 -0.4033
  808TIP3    H2 2854   1.719   2.311   2.417 -0.1678 -0.6992 -0.1156
  809TIP3   OH2 2855   2.413   4.644   0.220 -0.6263  0.0002 -0.2531
  809TIP3    H1 2856   2.454   4.636   0.134  0.9336  0.1409  0.4567
  809TIP3    H2 2857   2.359   4.565   0.228  0.4922 -0.8321 -0.7008
  810TIP3   OH2 2858   0.875   4.408   0.291 -0.2831 -0.2031 -0.3160
  810TIP3    H1 2859   0.862   4.463   0.368 -0.9703  2.0904 -2.0311
  810TIP3    H2 2860   0.846   4.461   0.217  2.5797 -1.4371 -2.4536
  811TIP3   OH2 2861   5.930   1.651   0.543  0.2518 -0.5911  0.2210
  811TIP3    H1 2862   5.991   1.577   0.538  0.5589 -0.2636 -0.9084
  811TIP3    H2 2863   5.958   1.710   0.473 -3.3881 -2.0112 -2.6198
  812TIP3   OH2 2864   3.503   2.742   1.906  0.1820  0.1443  0.2851
  812TIP3    H1 2865   3.467   2.656   1.928  0.7100  0.1314  1.1499
  812TIP3    H2 2866   3.576   2.724   1.847  0.1405  0.0178  0.2725
  813TIP3   OH2 2867   1.079   2.775   3.764  0.0052  0.0076 -0.0978
  813TIP3    H1 2868   1.121   2.717   3.828 -1.9064 -0.8558  0.4220
  813TIP3    H2 2869   1.034   2.716   3.704  0.6850  0.8712 -1.4690
  814TIP3   OH2 2870   0.432   4.407   4.069  0.1303  0.1297 -0.3730
  814TIP3    H1 2871   0.507   4.466   4.072  1.5546 -1.6373  0.1843
  814TIP3    H2 2872   0.469   4.323   4.043 -1.7497 -0.6623 -0.5960
  815TIP3   OH2 2873   4.670   3.229   2.207  0.0084 -0.3450  0.0642
  815TIP3    H1 2874   4.726   3.299   2.173  0.2385 -1.3386 -1.6912
  815TIP3    H2 2875   4.681   3.232   2.301  1.9901  0.3516 -0.1742
  816TIP3   OH2 2876   6.047   4.405   2.808  0.2773  0.5590 -0.1800
  816TIP3    H1 2877   6.029   4.336   2.745  0.5813  0.2228  0.0996
  816TIP3    H2 2878   6.054   4.360   2.892 -1.1327  1.1188  0.2625
  817TIP3   OH2 2879   1.192   1.186   0.504  0.0841 -0.6002 -0.2055
  817TIP3    H1 2880   1.121   1.229   0.551 -1.4762 -2.3611 -0.9310
  817TIP3    H2 2881   1.149   1.133   0.437  2.1492 -0.3182 -1.8305
  818TIP3   OH2 2882   1.546   5.492   2.802 -0.5602 -0.4672  0.2523
  818TIP3    H1 2883   1.598   5.515   2.880 -1.1025 -2.9133  1.3825
  818TIP3    H2 2884   1.611   5.463   2.738 -0.2188  0.3246  0.2332
  819TIP3   OH2 2885   0.558   4.092   1.395 -0.6970 -0.0533 -0.2326
  819TIP3    H1 2886   0.536   4.129   1.310 -1.7100 -0.4634 -0.1609
  819TIP3    H2 2887   0.588   4.003   1.374 -0.7952 -0.0994 -0.1803
  820TIP3   OH2 2888   4.602   2.309   2.436 -0.5145  0.3395 -0.2363
  820TIP3    H1 2889   4.515   2.317   2.474  0.2341  1.4812  1.3221
  820TIP3    H2 2890   4.622   2.396   2.402  0.3775  0.3320  0.2503
  821TIP3   OH2 2891   5.229   3.423   1.129 -0.3340  0.2230  0.0545
  821TIP3    H1 2892   5.314   3.439   1.087 -1.3030  2.1572 -1.2474
  821TIP3    H2 2893   5.247   3.430   1.222  0.8439  1.1634 -0.2289
  822TIP3   OH2 2894   4.551   2.830   1.881  0.2694 -0.1129  0.1611
  822TIP3    H1 2895   4.482   2.896   1.894  0.5479 -0.3033  3.0563
  822TIP3    H2 2896   4.530   2.788   1.798 -3.0557 -0.0675  0.9216
  823TIP3   OH2 2897   5.483   3.756   5.783  0.4108  0.6259 -0.4317
  823TIP3    H1 2898   5.537   3.688   5.742 -0.6773 -0.9646  0.6728
  823TIP3    H2 2899   5.417   3.777   5.717 -0.8909 -1.4044  0.1304
  824TIP3   OH2 2900   1.291   3.540   0.831  0.2590 -0.4176 -0.3813
  824TIP3    H1 2901   1.298   3.504   0.920  1.3591  0.0692 -0.2589
  824TIP3    H2 2902   1.218   3.493   0.792 -0.2326 -0.6496  0.7828
  825TIP3   OH2 2903   0.633   3.492   2.238  0.2280 -0.2609 -0.2442
  825TIP3    H1 2904   0.549   3.510   2.196 -0.0900 -0.6938  0.1960
  825TIP3    H2 2905   0.621   3.406   2.278  0.6468 -0.0158  0.4112
  826TIP3   OH2 2906   1.297   3.163   6.011  0.0348 -0.3847  0.6463
  826TIP3    H1 2907   1.204   3.153   6.032  0.2522 -3.0620  0.4504
  826TIP3    H2 2908   1.341   3.162   6.096  0.0680 -1.3197  0.6197
  827TIP3   OH2 2909   1.715   2.407   3.139  0.0721 -0.4603  0.2371
  827TIP3    H1 2910   1.620   2.418   3.128  0.2976 -0.6263 -2.2575
  827TIP3    H2 2911   1.728   2.312   3.138  0.2549 -0.4374  0.5549
  828TIP3   OH2 2912   4.781   2.182   1.431 -0.0586  0.0166  0.3891
  828TIP3    H1 2913   4.741   2.102   1.465 -1.4156  0.4884 -0.0779
  828TIP3    H2 2914   4.711   2.248   1.436  0.3976  0.6390 -1.2526
  829TIP3   OH2 2915   1.148   0.452   1.401 -0.4828 -0.0922  0.2120
  829TIP3    H1 2916   1.227   0.459   1.456 -0.2073 -2.9199  0.2682
  829TIP3    H2 2917   1.168   0.380   1.341 -1.4885  1.7938 -2.4548
  830TIP3   OH2 2918   1.516   2.496   2.759  0.1167 -0.0440 -0.6256
  830TIP3    H1 2919   1.447   2.511   2.694 -0.0647  1.4541 -0.1088
  830TIP3    H2 2920   1.596   2.486   2.707  0.0076  1.3530 -1.0902
  831TIP3   OH2 2921   1.951   0.998   1.609  0.5443 -0.1563  0.0367
  831TIP3    H1 2922   1.940   0.995   1.514 -0.2082 -0.2031  0.1255
  831TIP3    H2 2923   2.003   1.077   1.625  1.5242 -0.6842 -0.4934
  832TIP3   OH2 2924   5.714   1.825   1.312 -0.3505  0.1804  0.2225
  832TIP3    H1 2925   5.791   1.856   1.359 -1.0351  4.6808 -1.4248
  832TIP3    H2 2926   5.748   1.797   1.227 -0.4349  1.7483 -0.3418
  833TIP3   OH2 2927   1.329   1.439   1.914  0.3900 -0.0202 -0.0182
  833TIP3    H1 2928   1.279   1.424   1.834  1.4248 -0.6603 -0.5533
  833TIP3    H2 2929   1.378   1.358   1.928 -2.0787 -1.0887  2.9547
  834TIP3   OH2 2930   0.257   1.079   0.385  0.0371  0.2022 -0.1982
  834TIP3    H1 2931   0.286   1.147   0.446  1.2536 -0.3444 -0.1609
  834TIP3    H2 2932   0.192   1.029   0.434  0.5958  0.1178  0.4713
  835TIP3   OH2 2933   4.620   2.446   0.171  0.5005  0.5337  0.2918
  835TIP3    H1 2934   4.621   2.354   0.199  1.0922  0.6050  0.5210
  835TIP3    H2 2935   4.617   2.496   0.253 -0.1930  0.7176  0.1573
  836TIP3   OH2 2936   4.793   5.497   5.799  0.0361  0.4566  0.0046
  836TIP3    H1 2937   4.719   5.527   5.747 -0.5597 -2.5112 -0.9845
  836TIP3    H2 2938   4.868   5.506   5.740 -0.2358 -0.4992 -0.5058
  837TIP3   OH2 2939   5.306   1.734   2.046 -0.3693  0.7909  0.6905
  837TIP3    H1 2940   5.303   1.814   2.099 -0.6827  1.0923  0.2149
  837TIP3    H2 2941   5.261   1.756   1.965 -2.5012 -0.5286  1.4605
  838TIP3   OH2 2942   0.880   1.905   2.032 -0.2073  0.2881 -0.3852
  838TIP3    H1 2943   0.786   1.925   2.029 -0.1287  0.7811  0.2558
  838TIP3    H2 2944   0.885   1.810   2.033 -0.7154  0.2641 -0.0968
  839TIP3   OH2 2945   2.208   1.487   2.339  0.3574  0.2163  0.0760
  839TIP3    H1 2946   2.272   1.487   2.268  1.3279  1.0721  0.9378
  839TIP3    H2 2947   2.239   1.555   2.399 -1.2437  0.4926  0.6077
  840TIP3   OH2 2948   0.030   3.889   3.286 -0.5522  0.0086  0.1027
  840TIP3    H1 2949   0.040   3.840   3.204  0.4344  1.2914 -0.5650
  840TIP3    H2 2950  -0.060   3.924   3.281  0.3259  2.1679 -1.6513
  841TIP3   OH2 2951   0.587   2.125   1.918 -0.2527 -0.1867 -0.1692
  841TIP3    H1 2952   0.608   2.033   1.903 -2.8301 -1.0566  1.1513
  841TIP3    H2 2953   0.505   2.139   1.869  1.4214  2.1173 -2.4130
  842TIP3   OH2 2954   0.490   5.843   1.272 -0.9683  0.4695 -0.7470
  842TIP3    H1 2955   0.487   5.753   1.239 -2.0374  0.6175 -1.0661
  842TIP3    H2 2956   0.579   5.873   1.252  0.0855 -1.2131  1.2200
  843TIP3   OH2 2957   0.528   2.828   5.774  0.1843  0.1420  0.2894
  843TIP3    H1 2958   0.455   2.876   5.734  1.1375  0.0746 -1.6315
  843TIP3    H2 2959   0.488   2.776   5.844 -1.5366  0.4351 -0.4460
  844TIP3   OH2 2960   0.665   3.395   0.809 -0.0001  0.1757 -0.1161
  844TIP3    H1 2961   0.748   3.355   0.784 -0.5008 -1.5542  0.9136
  844TIP3    H2 2962   0.607   3.381   0.734 -0.2914 -1.4238  0.3855
  845TIP3   OH2 2963   6.023   3.223   1.841 -0.1598 -0.0787  0.4714
  845TIP3    H1 2964   5.989   3.210   1.753 -0.3110 -1.8795  0.7941
  845TIP3    H2 2965   6.025   3.319   1.852  3.0373  0.3095 -2.7298
  846TIP3   OH2 2966   1.571   3.277   4.880 -0.7570  0.5337  0.5949
  846TIP3    H1 2967   1.590   3.228   4.961  2.0641 -1.1487 -1.0239
  846TIP3    H2 2968   1.567   3.209   4.812  2.0340  2.3899 -1.5148
  847TIP3   OH2 2969   3.070   3.234   1.141 -0.3072  0.9633 -0.3391
  847TIP3    H1 2970   3.141   3.277   1.094 -1.0740  1.1369 -1.3620
  847TIP3    H2 2971   3.007   3.210   1.073 -1.7595  1.8238  0.6772
  848TIP3   OH2 2972   2.814   0.451   0.812  0.5136 -0.7758 -0.0593
  848TIP3    H1 2973   2.858   0.499   0.741  0.8639  0.6985  1.1186
  848TIP3    H2 2974   2.884   0.425   0.871  0.1031 -0.9623  0.3519
  849TIP3   OH2 2975   0.288   0.952   5.497 -0.6082  0.2043 -0.3272
  849TIP3    H1 2976   0.205   0.916   5.529  0.3785 -0.5776  1.3846
  849TIP3    H2 2977   0.327   0.882   5.445  0.1273 -0.3075  0.9088
  850TIP3   OH2 2978   0.717   3.465   3.488  0.0826  0.6251  0.0388
  850TIP3    H1 2979   0.777   3.440   3.558  0.2426  1.5041  0.2126
  850TIP3    H2 2980   0.764   3.532   3.438 -0.6370  1.1104  0.0042
  851TIP3   OH2 2981   1.000   3.951   5.073 -0.6216 -0.4782 -0.0129
  851TIP3    H1 2982   0.938   3.989   5.012 -0.3313  1.0552  0.6297
  851TIP3    H2 2983   0.958   3.870   5.102 -1.4219 -0.4613 -1.0965
  852TIP3   OH2 2984   0.254   0.476   1.515 -0.0241  0.9744  0.0444
  852TIP3    H1 2985   0.282   0.413   1.582  0.4931 -1.2413 -2.1670
  852TIP3    H2 2986   0.192   0.533   1.560  0.0944 -0.6268  2.3326
  853TIP3   OH2 2987   0.769   4.286   5.452 -0.4408  0.2016 -0.1456
  853TIP3    H1 2988   0.780   4.263   5.360  0.4090 -1.6142  0.3774
  853TIP3    H2 2989   0.846   4.248   5.496 -1.6592 -0.3897  1.5395
  854TIP3   OH2 2990   0.809   2.795   0.632  0.5520  0.7866  0.0330
  854TIP3    H1 2991   0.863   2.747   0.569  0.2725 -0.6208  0.8342
  854TIP3    H2 2992   0.719   2.784   0.600  0.5749  1.6087 -0.3177
  855TIP3   OH2 2993   2.233   2.833   1.353  0.3073  0.6759  0.1406
  855TIP3    H1 2994   2.140   2.812   1.363  0.2762  0.6050 -0.3084
  855TIP3    H2 2995   2.274   2.796   1.431 -0.0535  0.7786  0.3801
  856TIP3   OH2 2996   5.418   1.963   2.299  0.3363  0.3570 -0.1439
  856TIP3    H1 2997   5.351   1.977   2.366  1.9320 -1.4661  1.9071
  856TIP3    H2 2998   5.380   2.001   2.219 -2.7852  0.0584  1.1174
  857TIP3   OH2 2999   0.704   3.411   2.788  0.5863  0.2903  0.6607
  857TIP3    H1 3000   0.794   3.424   2.816  1.1658 -2.0152 -0.0209
  857TIP3    H2 3001   0.678   3.328   2.828  0.3027 -1.3463 -2.7112
  858TIP3   OH2 3002   0.721   0.598   1.555 -0.2949 -0.0636 -0.4982
  858TIP3    H1 3003   0.702   0.670   1.614 -0.2520 -1.6254  1.4976
  858TIP3    H2 3004   0.685   0.625   1.471 -0.6876  2.0592  0.3310
  859TIP3   OH2 3005   4.642   4.885   1.651 -0.2427 -0.1028 -0.2773
  859TIP3    H1 3006   4.717   4.870   1.593 -0.7592 -0.6398 -0.8054
  859TIP3    H2 3007   4.678   4.874   1.739  0.0419 -1.5185 -0.5636
  860TIP3   OH2 3008   1.116   1.435   2.714 -0.7564  0.7316  0.2997
  860TIP3    H1 3009   1.087   1.483   2.791 -0.1992  1.1285  0.2662
  860TIP3    H2 3010   1.092   1.344   2.731  0.7357  0.5693  1.6208
  861TIP3   OH2 3011   1.150   1.119   1.764 -0.0396  0.6565  0.3623
  861TIP3    H1 3012   1.167   1.075   1.681 -0.5336  0.6977  0.2389
  861TIP3    H2 3013   1.171   1.211   1.748  0.2276  0.6024  0.3938
  862TIP3   OH2 3014   2.136   1.964   1.460  0.3025 -0.2133  0.4501
  862TIP3    H1 3015   2.064   1.924   1.509 -0.3951  1.5550  0.8744
  862TIP3    H2 3016   2.108   1.961   1.368  0.5438 -1.2595  0.3962
  863TIP3   OH2 3017   5.604   3.888   0.910  0.2509  0.6520 -0.0301
  863TIP3    H1 3018   5.524   3.838   0.923  0.3616  0.0115 -1.7323
  863TIP3    H2 3019   5.574   3.978   0.897 -0.1769  0.4813 -0.2387
  864TIP3   OH2 3020   1.820   0.839   2.522  0.0167  0.1330 -0.7807
  864TIP3    H1 3021   1.808   0.817   2.430  1.8127  1.3574 -1.3518
  864TIP3    H2 3022   1.740   0.886   2.546 -0.4730 -0.2067 -1.7185
  865TIP3   OH2 3023   4.348   4.000   0.127  0.1356 -0.1427 -0.0215
  865TIP3    H1 3024   4.301   3.968   0.204  1.2554 -0.4507  0.5459
  865TIP3    H2 3025   4.412   4.062   0.162 -0.5249  1.0576 -0.8935
  866TIP3   OH2 3026   4.708   4.265   3.093  0.6975  0.3347  0.3593
  866TIP3    H1 3027   4.641   4.279   3.026 -0.3258  1.8652  1.6942
  866TIP3    H2 3028   4.755   4.187   3.063 -0.4703  0.3380 -1.5549
  867TIP3   OH2 3029   4.974   1.452   2.301  0.0584  0.6723 -0.7199
  867TIP3    H1 3030   4.995   1.466   2.208 -0.9758  1.8488 -0.7940
  867TIP3    H2 3031   4.968   1.357   2.310  0.6982  0.5209 -1.7369
  868TIP3   OH2 3032   0.999   2.292   1.266 -0.1753 -0.1755  0.1456
  868TIP3    H1 3033   0.983   2.385   1.256  0.3699 -0.4031 -3.6700
  868TIP3    H2 3034   0.969   2.253   1.184  1.4381 -3.0965  0.8447
  869TIP3   OH2 3035   4.795   2.972   5.657 -0.3383  0.5258  0.5222
  869TIP3    H1 3036   4.833   2.906   5.714  1.7226  1.1000 -0.1634
  869TIP3    H2 3037   4.778   2.926   5.574 -0.3345  0.4842  0.5448
  870TIP3   OH2 3038   0.845   4.702   1.325  0.0438  0.0537  0.3026
  870TIP3    H1 3039   0.846   4.780   1.380 -1.2073 -0.6017  1.2615
  870TIP3    H2 3040   0.922   4.652   1.353  0.0817  0.2956  0.6331
  871TIP3   OH2 3041   0.974   2.981   1.122 -0.3596  0.2053 -0.3445
  871TIP3    H1 3042   0.970   3.057   1.180 -0.5216  0.5455 -0.7930
  871TIP3    H2 3043   1.016   3.014   1.042  1.0482 -0.5654  0.0570
  872TIP3   OH2 3044   0.668   2.333   4.084  0.3368  0.3140 -0.9835
  872TIP3    H1 3045   0.763   2.327   4.076  0.4500  0.5667  0.1503
  872TIP3    H2 3046   0.650   2.321   4.177 -0.7316  0.4152 -1.1652
  873TIP3   OH2 3047   5.817   4.388   6.010  0.0437  0.1770 -0.0918
  873TIP3    H1 3048   5.743   4.329   6.023  0.5613 -0.3430  0.6131
  873TIP3    H2 3049   5.788   4.451   5.945 -0.9771 -0.0891  0.1052
  874TIP3   OH2 3050   0.380   4.351   2.524 -0.4934  0.0627  0.4505
  874TIP3    H1 3051   0.446   4.406   2.480  1.1326 -2.8638 -0.9200
  874TIP3    H2 3052   0.401   4.357   2.617  1.8229 -0.8995  0.0178
  875TIP3   OH2 3053   4.348   4.660   1.709  0.3737 -0.3552 -0.4577
  875TIP3    H1 3054   4.311   4.705   1.785 -1.5368  0.7429 -2.0001
  875TIP3    H2 3055   4.419   4.718   1.679  2.3136 -1.6427  1.4842
  876TIP3   OH2 3056   1.365   0.517   1.060  0.0620  0.0629  0.1523
  876TIP3    H1 3057   1.369   0.440   1.115 -0.6878  0.6165  0.9880
  876TIP3    H2 3058   1.450   0.560   1.073 -0.2975  0.4531  1.2666
  877TIP3   OH2 3059   4.430   3.455   1.358 -0.8704  0.1655 -0.3244
  877TIP3    H1 3060   4.355   3.396   1.363 -1.6156  1.1837  1.0504
  877TIP3    H2 3061   4.474   3.445   1.442  0.4986 -0.3487 -1.0809
  878TIP3   OH2 3062   0.985   5.020   2.300  0.2862 -0.3051 -0.2554
  878TIP3    H1 3063   0.960   4.952   2.237  0.5451  1.3800 -2.2618
  878TIP3    H2 3064   0.913   5.022   2.363 -0.8076 -0.9380 -1.4441
  879TIP3   OH2 3065   1.054   5.948   5.840 -0.2997 -0.2311  0.0963
  879TIP3    H1 3066   1.106   5.868   5.837 -0.2912 -0.1968 -0.7939
  879TIP3    H2 3067   0.997   5.943   5.763 -2.2903 -0.7216  1.5545
  880TIP3   OH2 3068   1.670   3.448   2.626  0.0654  0.3052 -0.3991
  880TIP3    H1 3069   1.607   3.388   2.587 -0.1843  0.7798 -0.7300
  880TIP3    H2 3070   1.616   3.513   2.671  0.3460 -0.1753  0.6411
  881TIP3   OH2 3071   1.504   4.987   1.275 -0.7458  0.4319  0.2018
  881TIP3    H1 3072   1.576   4.928   1.298  0.9596  1.5890 -1.9492
  881TIP3    H2 3073   1.457   5.000   1.357  2.2245  0.5967  1.9623
  882TIP3   OH2 3074   0.822   2.662   1.398  0.5059 -0.0620  0.4041
  882TIP3    H1 3075   0.844   2.580   1.353 -0.9466 -1.1308  1.6193
  882TIP3    H2 3076   0.880   2.664   1.474  2.2144  1.2308 -0.8863
  883TIP3   OH2 3077   5.402   3.015   3.206 -0.5251  0.6871 -0.1551
  883TIP3    H1 3078   5.382   2.940   3.151 -0.7230  2.1958 -2.1836
  883TIP3    H2 3079   5.335   3.013   3.275 -1.5200 -0.0546 -1.1315
  884TIP3   OH2 3080   3.921   4.685   1.642 -0.2625 -0.1300  0.2562
  884TIP3    H1 3081   3.994   4.719   1.590 -2.2566  0.3040 -2.3321
  884TIP3    H2 3082   3.953   4.688   1.732  2.3687  1.4826 -0.6762
  885TIP3   OH2 3083   1.560   5.756   2.580 -0.3688 -0.2717  0.1109
  885TIP3    H1 3084   1.529   5.804   2.656  0.7303  1.9751 -0.8200
  885TIP3    H2 3085   1.512   5.673   2.583 -1.1453  0.2228  2.6097
  886TIP3   OH2 3086   0.205   1.998   1.388  0.1200 -0.3484  0.3058
  886TIP3    H1 3087   0.256   1.966   1.314 -1.4293 -0.7619 -0.6084
  886TIP3    H2 3088   0.160   1.920   1.421  1.8930 -0.4487  2.5963
  887TIP3   OH2 3089   0.440   3.022   2.194  0.1928 -0.8332 -0.3548
  887TIP3    H1 3090   0.475   3.096   2.145 -0.5703 -0.8763 -0.9702
  887TIP3    H2 3091   0.479   2.945   2.153  1.2375 -0.7733  0.4879
  888TIP3   OH2 3092   0.592   2.660   2.757 -0.3915  0.1213  0.3125
  888TIP3    H1 3093   0.605   2.606   2.679  1.8368  1.2945 -0.1656
  888TIP3    H2 3094   0.502   2.641   2.785 -0.5226 -1.8366 -1.3541
  889TIP3   OH2 3095   0.092   2.628   0.274 -0.4661 -0.5083 -0.0154
  889TIP3    H1 3096   0.060   2.551   0.229  1.8231 -1.7661  0.4208
  889TIP3    H2 3097   0.050   2.625   0.360 -0.2643 -1.3598  0.0575
  890TIP3   OH2 3098   5.936   3.075   5.711  0.6377 -0.1759 -0.5260
  890TIP3    H1 3099   5.913   3.166   5.692  1.3136  0.2743  0.7765
  890TIP3    H2 3100   5.920   3.028   5.628 -0.9537  0.8757 -0.8228
  891TIP3   OH2 3101   4.583   2.206   1.165  0.3818  0.4456 -0.1776
  891TIP3    H1 3102   4.641   2.230   1.093 -1.5010 -0.2427 -1.9549
  891TIP3    H2 3103   4.539   2.287   1.189  1.3411  0.7697  0.5370
  892TIP3   OH2 3104   1.465   2.514   3.045 -0.3627 -0.4740 -0.4514
  892TIP3    H1 3105   1.489   2.509   2.952  0.5880 -0.6740 -0.2021
  892TIP3    H2 3106   1.404   2.588   3.050 -1.5284 -1.3238 -1.4624
  893TIP3   OH2 3107   1.026   5.511   5.270  0.0584  0.4821 -0.0406
  893TIP3    H1 3108   1.066   5.424   5.266 -1.8931 -0.5148  1.2205
  893TIP3    H2 3109   1.057   5.548   5.353 -0.5088  0.2588  0.2767
  894TIP3   OH2 3110   5.992   0.710   0.791 -0.5563  0.1930  0.2366
  894TIP3    H1 3111   6.005   0.799   0.758  1.1919  1.2322  3.5390
  894TIP3    H2 3112   6.080   0.677   0.806 -1.1653 -2.3930 -1.5561
  895TIP3   OH2 3113   5.517   1.995   0.186 -0.2995  0.1544  0.0702
  895TIP3    H1 3114   5.439   1.955   0.225 -0.8579  0.8368 -0.3479
  895TIP3    H2 3115   5.483   2.058   0.122  0.5891  0.6849  0.1116
  896TIP3   OH2 3116   5.345   5.470   0.916  0.0691  0.4796  0.0747
  896TIP3    H1 3117   5.328   5.473   0.822  1.4474  1.5129 -0.1674
  896TIP3    H2 3118   5.439   5.486   0.923 -0.3635  2.4080  1.7475
  897TIP3   OH2 3119   2.891   4.215   5.692  0.1303 -0.1399 -0.3734
  897TIP3    H1 3120   2.877   4.281   5.760  1.6934  0.6430 -0.7882
  897TIP3    H2 3121   2.807   4.208   5.647 -0.2565  1.0062  0.1682
  898TIP3   OH2 3122   0.665   0.386   1.228  0.2978  0.3113  0.4025
  898TIP3    H1 3123   0.736   0.378   1.291 -0.3308 -2.8690  0.7965
  898TIP3    H2 3124   0.605   0.449   1.268  0.9532 -0.0412  2.0105
  899TIP3   OH2 3125   0.474   5.363   2.668 -0.2629 -0.1555 -0.3633
  899TIP3    H1 3126   0.555   5.317   2.646 -0.5031  0.8797 -3.8214
  899TIP3    H2 3127   0.409   5.293   2.679  0.2113 -0.8406 -1.7936
  900TIP3   OH2 3128   5.679   1.453   1.183  0.0789 -0.4127 -0.2227
  900TIP3    H1 3129   5.618   1.477   1.253 -0.7154 -1.1926 -0.6376
  900TIP3    H2 3130   5.664   1.360   1.168  1.3738 -0.6146 -0.3436
  901TIP3   OH2 3131   1.137   5.901   1.054  0.2233 -0.5655  0.3611
  901TIP3    H1 3132   1.213   5.921   1.109  0.7652  2.0632 -1.2641
  901TIP3    H2 3133   1.172   5.846   0.984  0.5038  0.0575  0.0070
  902TIP3   OH2 3134   2.389   3.377   5.778 -0.4179  0.2119  0.8632
  902TIP3    H1 3135   2.447   3.336   5.842 -0.1568 -0.2657  0.3126
  902TIP3    H2 3136   2.302   3.345   5.801 -0.2829 -0.2210  0.7772
  903TIP3   OH2 3137   1.523   2.425   0.376 -0.0352  0.1408  0.0063
  903TIP3    H1 3138   1.471   2.483   0.430 -0.2762 -0.0921  0.0257
  903TIP3    H2 3139   1.459   2.370   0.331  0.1706  0.1875 -0.3504
  904TIP3   OH2 3140   1.162   3.167   0.294 -0.2310  0.0261 -0.0876
  904TIP3    H1 3141   1.122   3.252   0.312 -1.4280 -0.5069 -0.1997
  904TIP3    H2 3142   1.125   3.140   0.210  1.6939  0.3169 -1.0514
  905TIP3   OH2 3143   0.850   1.851   3.364  0.0390  0.1106 -0.4898
  905TIP3    H1 3144   0.936   1.818   3.388  0.0882  1.0919  0.7443
  905TIP3    H2 3145   0.855   1.945   3.380 -1.4324  0.0979  0.1674
  906TIP3   OH2 3146   2.064   0.958   0.365 -0.0182 -0.2620  0.1857
  906TIP3    H1 3147   2.042   0.914   0.447  0.1424 -1.7526 -0.5402
  906TIP3    H2 3148   1.997   1.026   0.355  0.6120  0.6417  2.0832
  907TIP3   OH2 3149   5.383   2.965   0.944  0.7368  0.2883  0.3650
  907TIP3    H1 3150   5.454   2.921   0.897 -0.4602 -1.2254 -0.0608
  907TIP3    H2 3151   5.304   2.915   0.922 -0.4065  1.6761  1.1771
  908TIP3   OH2 3152   2.025   2.291   3.453  0.2943 -0.1090 -0.0496
  908TIP3    H1 3153   2.053   2.236   3.380 -0.1799 -0.6771  0.1883
  908TIP3    H2 3154   1.981   2.365   3.412  0.8492  0.0465 -0.3709
  909TIP3   OH2 3155   0.727   2.245   2.425  0.2971  0.0175  0.1032
  909TIP3    H1 3156   0.808   2.229   2.474  0.4251  1.0295  0.2529
  909TIP3    H2 3157   0.738   2.197   2.344  0.1783 -1.5095  0.9754
  910TIP3   OH2 3158   4.304   0.609   0.674 -0.6000 -0.1646  0.0818
  910TIP3    H1 3159   4.281   0.701   0.660 -2.2663 -0.6152 -0.2572
  910TIP3    H2 3160   4.294   0.569   0.587  1.2760 -0.4415 -0.0265
  911TIP3   OH2 3161   1.510   1.817   4.787  0.5492 -0.2226  0.0917
  911TIP3    H1 3162   1.570   1.767   4.843  0.9211 -0.2633 -0.3430
  911TIP3    H2 3163   1.567   1.872   4.734  0.2050 -0.3329 -0.3938
  912TIP3   OH2 3164   4.778   0.589   5.661 -0.4364  0.7241 -0.1350
  912TIP3    H1 3165   4.768   0.646   5.737  1.3540  2.1790 -0.9372
  912TIP3    H2 3166   4.727   0.632   5.592  1.1471  1.5249 -0.8215
  913TIP3   OH2 3167   0.759   3.693   1.873  0.0069  0.4271 -0.1416
  913TIP3    H1 3168   0.759   3.724   1.964  0.6553 -0.5387  0.1975
  913TIP3    H2 3169   0.777   3.599   1.880 -1.2958  0.0894 -1.1983
  914TIP3   OH2 3170   0.536   3.885   5.827 -0.2604  0.4777  0.0879
  914TIP3    H1 3171   0.601   3.899   5.896 -1.5160 -0.0840  1.4176
  914TIP3    H2 3172   0.567   3.939   5.754  0.8787  1.4058  1.2216
  915TIP3   OH2 3173   4.927   2.218   0.629  0.3284  0.0425  0.0412
  915TIP3    H1 3174   4.838   2.253   0.633 -0.1979 -1.2233 -0.2768
  915TIP3    H2 3175   4.966   2.240   0.714  0.1548  1.7234 -0.3042
  916TIP3   OH2 3176   0.857   2.395   4.812  0.1466  0.3126 -0.4097
  916TIP3    H1 3177   0.931   2.341   4.784  0.2495  0.3326 -0.1724
  916TIP3    H2 3178   0.883   2.484   4.787  2.0590  0.9215  3.4603
  917TIP3   OH2 3179   0.846   4.872   5.595 -0.5444  0.3555 -0.3318
  917TIP3    H1 3180   0.830   4.779   5.606 -0.9625  0.6728  2.0134
  917TIP3    H2 3181   0.762   4.908   5.565 -0.9542  0.2591  0.6771
  918TIP3   OH2 3182   5.462   2.320   1.129  0.0471  0.5410  0.2433
  918TIP3    H1 3183   5.510   2.237   1.136  0.5843  0.7805 -0.6103
  918TIP3    H2 3184   5.469   2.359   1.216 -0.1846 -0.2990  0.6418
  919TIP3   OH2 3185   1.971   1.715   2.378 -0.2034 -0.3475  0.1991
  919TIP3    H1 3186   2.010   1.633   2.345  0.3679 -0.5594  1.3917
  919TIP3    H2 3187   1.880   1.711   2.349 -0.4881 -1.9554  1.2344
  920TIP3   OH2 3188   4.037   2.383   0.968  0.1931  0.4026  0.0632
  920TIP3    H1 3189   3.967   2.362   1.030  0.5415 -0.6653  0.1136
  920TIP3    H2 3190   3.992   2.424   0.894 -0.1382  2.3572  1.3253
  921TIP3   OH2 3191   2.839   3.188   0.204  0.6998 -0.0104  0.4636
  921TIP3    H1 3192   2.854   3.281   0.219  1.9790 -0.0637 -0.4483
  921TIP3    H2 3193   2.879   3.145   0.280 -1.7237  0.2749  1.9530
  922TIP3   OH2 3194   4.669   1.932   1.149  0.0516 -0.1794  0.5689
  922TIP3    H1 3195   4.637   2.021   1.164  1.7993  0.9376 -2.0237
  922TIP3    H2 3196   4.669   1.892   1.235 -0.6818  2.3594  1.8047
  923TIP3   OH2 3197   2.196   2.438   1.123  0.0058 -0.6322 -0.0987
  923TIP3    H1 3198   2.217   2.348   1.148 -1.4950 -0.7684  0.6955
  923TIP3    H2 3199   2.227   2.491   1.197  1.2760 -0.4367 -0.7506
  924TIP3   OH2 3200   3.750   4.871   0.921 -0.0679  0.1156  0.3308
  924TIP3    H1 3201   3.796   4.786   0.922 -2.8169 -1.4175  1.3840
  924TIP3    H2 3202   3.717   4.882   1.010 -1.0647  1.5501 -0.1966
  925TIP3   OH2 3203   2.073   2.990   2.172 -0.3784 -0.2350  0.5292
  925TIP3    H1 3204   2.079   2.906   2.127  0.4196 -0.2110  0.5979
  925TIP3    H2 3205   1.986   3.023   2.149 -0.4219 -0.7530 -0.0572
  926TIP3   OH2 3206   5.037   4.868   4.333  0.3782  0.3686 -0.1286
  926TIP3    H1 3207   4.952   4.850   4.373 -0.3584  1.3804 -1.2101
  926TIP3    H2 3208   5.099   4.860   4.406 -0.8726  1.5620  1.1106
  927TIP3   OH2 3209   0.209   0.811   1.336 -0.6377 -0.7237 -0.0310
  927TIP3    H1 3210   0.300   0.787   1.321 -0.3661 -0.0728  0.5246
  927TIP3    H2 3211   0.159   0.732   1.317 -0.0393 -0.8109 -1.2367
  928TIP3   OH2 3212   1.913   1.162   5.192 -0.4936  0.1346  0.3824
  928TIP3    H1 3213   1.900   1.211   5.273  2.6364  0.6394  0.6359
  928TIP3    H2 3214   1.896   1.227   5.123 -0.2528  0.4921  0.6574
  929TIP3   OH2 3215   2.474   3.886   4.935 -0.2904 -0.1123 -0.0259
  929TIP3    H1 3216   2.476   3.981   4.921 -0.0750 -0.1039  0.0563
  929TIP3    H2 3217   2.502   3.875   5.026 -0.3739 -0.2516 -0.0181
  930TIP3   OH2 3218   4.156   5.337   2.253  0.4327 -0.2937  0.4248
  930TIP3    H1 3219   4.193   5.425   2.243  0.2012 -0.3115 -0.7237
  930TIP3    H2 3220   4.198   5.302   2.331  1.1773  0.5238  0.4010
  931TIP3   OH2 3221   4.432   0.626   2.033  0.8083  0.1647  0.9518
  931TIP3    H1 3222   4.444   0.566   2.106 -0.1220 -0.8751  0.2637
  931TIP3    H2 3223   4.337   0.639   2.028  0.8062 -0.3167 -0.4905
  932TIP3   OH2 3224   4.037   5.002   5.788  0.6228 -0.2930  0.1082
  932TIP3    H1 3225   3.968   4.945   5.823  0.5999 -1.5346 -1.8770
  932TIP3    H2 3226   4.045   5.072   5.852 -0.3717 -1.7532  1.8897
  933TIP3   OH2 3227   5.019   2.137   0.894 -0.5389  0.5121 -0.0866
  933TIP3    H1 3228   5.045   2.056   0.851 -0.4130  1.8221 -2.5794
  933TIP3    H2 3229   4.997   2.111   0.983 -0.7612 -2.2954 -0.9128
  934TIP3   OH2 3230   2.823   2.588   1.752 -0.4035  0.4208  0.2800
  934TIP3    H1 3231   2.772   2.668   1.736  0.7089  1.1555  0.3533
  934TIP3    H2 3232   2.914   2.615   1.738 -0.0803 -1.0505 -0.5700
  935TIP3   OH2 3233   5.174   4.952   4.828 -0.0238 -0.1701  0.5671
  935TIP3    H1 3234   5.089   4.950   4.872 -0.1856  0.8413  0.3126
  935TIP3    H2 3235   5.156   4.992   4.743  0.3439 -1.7951 -0.3060
  936TIP3   OH2 3236   2.996   0.546   1.508  0.0620 -0.5228 -0.4620
  936TIP3    H1 3237   2.916   0.596   1.492  1.2529  1.1690 -1.2649
  936TIP3    H2 3238   2.987   0.515   1.598 -0.4577  1.5988  0.2602
  937TIP3   OH2 3239   2.197   4.136   1.757 -0.0709  0.9846 -0.0428
  937TIP3    H1 3240   2.226   4.204   1.696 -1.9796  1.4683 -0.4217
  937TIP3    H2 3241   2.136   4.082   1.706  0.8814 -0.6170  0.4574
  938TIP3   OH2 3242   2.389   5.480   1.805  0.1654  0.1442  0.1362
  938TIP3    H1 3243   2.440   5.467   1.886  0.2660 -0.2005  0.0196
  938TIP3    H2 3244   2.443   5.441   1.737 -0.3376 -0.3931  0.0379
  939TIP3   OH2 3245   2.878   4.019   0.954 -0.9521 -0.0452  0.1296
  939TIP3    H1 3246   2.900   3.995   0.864  0.1553  0.5386  0.2426
  939TIP3    H2 3247   2.929   3.959   1.009  0.3972  1.2946  0.3864
  940TIP3   OH2 3248   2.092   2.813   0.155 -0.1221 -0.2681 -0.2451
  940TIP3    H1 3249   2.087   2.729   0.110  0.2948  0.1827 -1.1477
  940TIP3    H2 3250   2.170   2.855   0.118 -1.0458  1.0395 -0.7160
  941TIP3   OH2 3251   1.810   1.517   2.563 -0.0723 -0.0698 -0.4224
  941TIP3    H1 3252   1.818   1.520   2.468  0.7877  0.2606 -0.3454
  941TIP3    H2 3253   1.780   1.604   2.588  1.3261  0.3908 -0.2619
  942TIP3   OH2 3254   3.883   4.544   4.889 -0.4375  0.4672  0.2388
  942TIP3    H1 3255   3.954   4.572   4.947  0.2123  0.4389 -0.5310
  942TIP3    H2 3256   3.805   4.584   4.926 -0.1727 -0.2839  1.6511
  943TIP3   OH2 3257   1.513   2.216   2.689  0.0459 -0.4530  0.3201
  943TIP3    H1 3258   1.494   2.301   2.728 -1.4403 -0.1138 -1.1134
  943TIP3    H2 3259   1.521   2.233   2.596 -1.6435 -2.1054 -0.1575
  944TIP3   OH2 3260   3.648   5.341   0.513  0.1002  0.3202  0.0405
  944TIP3    H1 3261   3.640   5.392   0.593 -1.5512  1.2214 -0.6714
  944TIP3    H2 3262   3.582   5.272   0.521  0.4977 -0.0860 -0.1733
  945TIP3   OH2 3263   1.627   1.262   0.789  0.7526  0.5183 -0.4981
  945TIP3    H1 3264   1.670   1.315   0.721 -0.5364  0.3810 -1.4504
  945TIP3    H2 3265   1.552   1.222   0.744  0.2682 -0.1207  0.8470
  946TIP3   OH2 3266   3.185   2.376   5.823 -0.1309 -0.2945 -0.1099
  946TIP3    H1 3267   3.129   2.402   5.749  2.0837  1.4612 -1.2015
  946TIP3    H2 3268   3.203   2.283   5.807 -0.8150 -0.2798 -1.0289
  947TIP3   OH2 3269   2.964   3.667   1.734 -0.1188  1.1810  0.7361
  947TIP3    H1 3270   2.878   3.636   1.762  0.7133 -1.4025  0.5815
  947TIP3    H2 3271   2.952   3.693   1.643 -0.4333 -0.6387  0.2264
  948TIP3   OH2 3272   3.807   5.276   5.434  0.4270  0.7296 -0.1101
  948TIP3    H1 3273   3.880   5.285   5.495 -2.3729  1.6941  3.2504
  948TIP3    H2 3274   3.779   5.365   5.416 -2.9727  0.3265  2.6115
  949TIP3   OH2 3275   2.249   4.545   0.645  0.1819 -0.0088  0.1765
  949TIP3    H1 3276   2.168   4.499   0.667  0.0487 -0.0677 -0.4160
  949TIP3    H2 3277   2.221   4.620   0.593  0.5442 -0.4142 -0.6317
  950TIP3   OH2 3278   1.436   3.136   5.480 -0.2696  0.0639  1.1128
  950TIP3    H1 3279   1.482   3.105   5.558 -0.5442  0.5017  1.4524
  950TIP3    H2 3280   1.394   3.217   5.508 -1.4345 -0.4478  0.8618
  951TIP3   OH2 3281   1.715   5.041   0.629  0.2871  0.0852  0.3440
  951TIP3    H1 3282   1.684   5.109   0.568 -0.4382 -0.5771 -0.0282
  951TIP3    H2 3283   1.774   4.987   0.577 -0.9188 -0.9323  0.0127
  952TIP3   OH2 3284   3.331   2.309   1.045 -0.3871 -0.0977 -0.0769
  952TIP3    H1 3285   3.312   2.392   1.090 -0.1953  0.3186 -0.7517
  952TIP3    H2 3286   3.252   2.257   1.056  0.6289 -1.0503  3.0560
  953TIP3   OH2 3287   5.185   5.295   1.362 -0.0679  0.0510 -0.1625
  953TIP3    H1 3288   5.117   5.228   1.366 -0.4630  0.5465  1.4774
  953TIP3    H2 3289   5.176   5.332   1.274 -2.3261  0.5303  0.2416
  954TIP3   OH2 3290   1.925   3.165   5.889 -0.2925  0.0026 -0.1600
  954TIP3    H1 3291   1.906   3.173   5.982  1.0744  2.4485 -0.0431
  954TIP3    H2 3292   1.989   3.094   5.883 -0.4759 -0.2466  0.7557
  955TIP3   OH2 3293   2.724   2.883   5.964 -0.3568 -0.2722  0.6892
  955TIP3    H1 3294   2.812   2.902   5.931 -0.8652 -1.1764 -1.2735
  955TIP3    H2 3295   2.720   2.787   5.964 -1.0466 -0.2409  1.6020
  956TIP3   OH2 3296   2.480   3.230   5.521 -0.1159  0.6372 -0.4722
  956TIP3    H1 3297   2.404   3.213   5.577 -0.3350  2.5218 -0.1666
  956TIP3    H2 3298   2.554   3.190   5.567 -0.5254  0.9336  0.4403
  957TIP3   OH2 3299   5.053   1.343   1.337 -0.4750 -0.4599  0.0769
  957TIP3    H1 3300   5.148   1.347   1.341 -0.4788 -0.2160 -0.1064
  957TIP3    H2 3301   5.031   1.370   1.248 -0.8374  1.6484  0.7827
  958TIP3   OH2 3302   5.338   1.521   3.027 -0.1225  0.5400  0.0175
  958TIP3    H1 3303   5.261   1.481   3.068 -0.0900  0.2037 -0.2469
  958TIP3    H2 3304   5.360   1.595   3.084  0.4490 -0.4452  1.0972
  959TIP3   OH2 3305   3.935   1.716   3.323 -0.1914  0.1936  0.2651
  959TIP3    H1 3306   3.922   1.741   3.231  1.4346 -1.6925 -0.5394
  959TIP3    H2 3307   3.941   1.798   3.370 -2.4432  1.1799 -1.1162
  960TIP3   OH2 3308   2.436   3.984   1.815  0.2029 -0.0562  0.4140
  960TIP3    H1 3309   2.358   4.039   1.820 -0.3435 -0.7712 -0.2386
  960TIP3    H2 3310   2.480   3.999   1.899 -1.9701 -1.6403  1.8841
  961TIP3   OH2 3311   1.764   0.721   0.882  0.2877 -0.2744 -0.3383
  961TIP3    H1 3312   1.809   0.656   0.829  0.1263  0.0426 -0.8700
  961TIP3    H2 3313   1.733   0.786   0.819  0.7405  0.4945  0.2170
  962TIP3   OH2 3314   4.120   2.687   6.026  0.1331  0.4373  0.1265
  962TIP3    H1 3315   4.216   2.678   6.021  0.1574  0.9483 -0.4514
  962TIP3    H2 3316   4.092   2.614   6.080  0.7998 -0.0715 -0.2007
  963TIP3   OH2 3317   4.913   2.041   0.015 -0.0093  0.2535 -0.2408
  963TIP3    H1 3318   5.004   2.040  -0.015 -0.7760 -0.1063 -2.7054
  963TIP3    H2 3319   4.889   2.134   0.015  0.5200  0.3963  0.9729
  964TIP3   OH2 3320   3.042   3.770   5.424  0.2346 -0.1645 -0.0854
  964TIP3    H1 3321   3.012   3.847   5.474 -0.4113 -0.3903 -0.1154
  964TIP3    H2 3322   3.112   3.804   5.368  0.7863  0.1483  0.7779
  965TIP3   OH2 3323   2.775   2.789   3.963  0.1929  0.5875  0.4435
  965TIP3    H1 3324   2.709   2.859   3.963 -0.4684  0.0037  2.3493
  965TIP3    H2 3325   2.739   2.722   3.904 -0.0511  1.0584  0.0521
  966TIP3   OH2 3326   3.799   1.781   1.518 -0.6786  0.5681  0.3119
  966TIP3    H1 3327   3.808   1.703   1.464  1.2325  1.1511 -0.2244
  966TIP3    H2 3328   3.793   1.748   1.607  1.3780 -0.1345  0.2007
  967TIP3   OH2 3329   1.066   3.422   0.433  0.1917 -0.0002 -0.6149
  967TIP3    H1 3330   1.057   3.514   0.410 -0.1085 -0.4674 -2.3825
  967TIP3    H2 3331   0.993   3.378   0.389 -0.0563 -1.0059  0.7424
  968TIP3   OH2 3332   4.734   2.616   3.739 -0.3511 -0.4000 -0.1523
  968TIP3    H1 3333   4.809   2.666   3.707  0.1690 -0.0444  1.6055
  968TIP3    H2 3334   4.767   2.526   3.748  0.1655 -0.0558  1.5624
  969TIP3   OH2 3335   0.114   3.390   1.593  0.5049  0.3486  0.3607
  969TIP3    H1 3336   0.114   3.480   1.625 -1.8891  0.9821 -1.3095
  969TIP3    H2 3337   0.177   3.390   1.520 -1.8594  1.5174 -1.7563
  970TIP3   OH2 3338   1.878   3.143   0.572 -0.3527  0.4281 -0.1150
  970TIP3    H1 3339   1.839   3.200   0.638 -1.2950  0.5723 -0.7848
  970TIP3    H2 3340   1.971   3.140   0.594 -0.7880 -0.1272  1.6533
  971TIP3   OH2 3341   1.046   2.372   5.884 -0.3594  0.3679  0.2790
  971TIP3    H1 3342   1.102   2.431   5.833 -1.1329  1.0947  0.2520
  971TIP3    H2 3343   1.104   2.300   5.909  0.1502  0.2055 -1.2559
  972TIP3   OH2 3344   1.290   3.010   5.785 -0.0702 -0.4087 -0.0684
  972TIP3    H1 3345   1.291   3.083   5.847  2.2623  1.3366 -2.0589
  972TIP3    H2 3346   1.379   3.006   5.750 -0.4553 -3.4895 -0.8624
  973TIP3   OH2 3347   2.563   2.652   5.901 -0.3833 -0.2395  0.5285
  973TIP3    H1 3348   2.544   2.667   5.808  0.1869 -1.5881  0.1911
  973TIP3    H2 3349   2.478   2.662   5.944 -1.1130 -2.0466 -0.4519
  974TIP3   OH2 3350   2.949   1.930   2.424  0.4425  0.0596 -0.4560
  974TIP3    H1 3351   2.989   2.007   2.384  0.7608  1.0881  1.8041
  974TIP3    H2 3352   2.867   1.961   2.462  1.3305 -0.3538  1.8539
  975TIP3   OH2 3353   2.512   3.401   4.642 -0.6234 -0.0527 -0.3787
  975TIP3    H1 3354   2.505   3.496   4.633  1.9333  0.1553 -0.4643
  975TIP3    H2 3355   2.508   3.367   4.553 -2.7999 -0.1697 -0.2766
  976TIP3   OH2 3356   3.378   0.895   1.664  0.7183 -0.1025 -0.4866
  976TIP3    H1 3357   3.468   0.886   1.632  0.5618  1.9080 -1.5006
  976TIP3    H2 3358   3.324   0.860   1.594  0.6601 -0.6292 -0.1820
  977TIP3   OH2 3359   1.838   2.469   0.722  0.0734  0.1502  0.0461
  977TIP3    H1 3360   1.790   2.481   0.804 -0.9674  0.2035 -0.5703
  977TIP3    H2 3361   1.929   2.486   0.746 -0.2891  0.7141  1.0731
  978TIP3   OH2 3362   2.678   0.810   6.023  0.0696 -0.1164  0.0248
  978TIP3    H1 3363   2.619   0.868   6.070  0.3867 -0.6718  1.1349
  978TIP3    H2 3364   2.766   0.838   6.048  0.2259 -1.0371  0.5476
  979TIP3   OH2 3365   3.877   3.173   1.147  0.0745 -0.0488 -0.2335
  979TIP3    H1 3366   3.963   3.155   1.109  0.9935  0.0658  1.7708
  979TIP3    H2 3367   3.816   3.158   1.074  1.6399 -1.6381 -1.2705
  980TIP3   OH2 3368   0.500   4.089   3.515 -0.1705  0.1127  0.1254
  980TIP3    H1 3369   0.583   4.051   3.541  0.7925  1.3501 -1.0630
  980TIP3    H2 3370   0.522   4.178   3.487 -2.0603  0.8450  0.8976
  981TIP3   OH2 3371   1.827   2.470   3.929  0.2475  0.3236  0.2757
  981TIP3    H1 3372   1.850   2.387   3.887  1.4873  1.4845 -1.4251
  981TIP3    H2 3373   1.731   2.467   3.936  0.1083 -0.4370 -1.5344
  982TIP3   OH2 3374   2.852   2.444   0.941  0.0777  0.5485 -0.1790
  982TIP3    H1 3375   2.914   2.378   0.911  2.0056  2.4637 -0.5687
  982TIP3    H2 3376   2.830   2.494   0.862  0.1428  1.5660  0.4351
  983TIP3   OH2 3377   2.287   3.107   2.299 -0.4344 -0.1653  0.6281
  983TIP3    H1 3378   2.312   3.144   2.215  1.4051 -1.8803  0.3838
  983TIP3    H2 3379   2.219   3.043   2.278 -1.1824  0.6159  0.6541
  984TIP3   OH2 3380   1.531   3.762   5.354  0.1007  0.4850  0.1145
  984TIP3    H1 3381   1.538   3.681   5.404 -1.2239  0.0687 -0.3671
  984TIP3    H2 3382   1.442   3.762   5.320  0.9484  0.7923 -2.1762
  985TIP3   OH2 3383   4.365   4.391   0.829  0.1793 -0.1161 -0.5139
  985TIP3    H1 3384   4.407   4.366   0.747 -0.2781 -0.4087 -0.6571
  985TIP3    H2 3385   4.438   4.401   0.890  0.3956 -1.6782 -0.4907
  986TIP3   OH2 3386   3.592   3.531   5.346 -0.2055  0.3579 -0.4675
  986TIP3    H1 3387   3.558   3.482   5.271 -0.8028 -0.0922  0.0876
  986TIP3    H2 3388   3.616   3.463   5.409  1.4095  0.6830 -0.7167
  987TIP3   OH2 3389   1.464   2.234   5.651 -0.4538  0.3038 -0.2867
  987TIP3    H1 3390   1.408   2.166   5.689  0.2088 -2.0904 -3.3700
  987TIP3    H2 3391   1.407   2.310   5.642 -2.6027 -1.3502 -1.2113
  988TIP3   OH2 3392   4.587   3.418   5.814 -0.2503  0.3001 -0.3517
  988TIP3    H1 3393   4.574   3.441   5.906 -2.5096 -3.1023  0.2560
  988TIP3    H2 3394   4.654   3.350   5.815 -0.5596 -0.0219 -1.2118
  989TIP3   OH2 3395   2.479   3.923   0.311 -0.2978  0.0346  0.0035
  989TIP3    H1 3396   2.390   3.956   0.298  0.2330  1.9027  0.9986
  989TIP3    H2 3397   2.526   3.950   0.232 -0.6911 -1.2544 -0.6784
  990TIP3   OH2 3398   0.212   3.193   1.812  0.1763 -0.2401 -0.4184
  990TIP3    H1 3399   0.214   3.251   1.736 -0.1210  0.2324 -0.0659
  990TIP3    H2 3400   0.120   3.171   1.823  0.3514 -1.2650 -0.9118
  991TIP3   OH2 3401   3.236   3.642   1.210  0.7716  0.4898  0.2540
  991TIP3    H1 3402   3.229   3.547   1.218 -0.5581  0.3307 -2.4211
  991TIP3    H2 3403   3.292   3.655   1.133  0.9032  1.8776  0.5798
  992TIP3   OH2 3404   1.250   4.297   1.355  0.5102  0.0133  0.6835
  992TIP3    H1 3405   1.304   4.230   1.397  1.1493 -0.3644 -0.7264
  992TIP3    H2 3406   1.172   4.250   1.326 -0.1894  0.3841  1.9052
  993TIP3   OH2 3407   3.943   3.152   2.879  0.1345  0.4205 -0.7243
  993TIP3    H1 3408   3.904   3.233   2.846 -1.3919  0.5090  1.2457
  993TIP3    H2 3409   3.871   3.089   2.879  0.1606  0.3475  2.1105
  994TIP3   OH2 3410   0.962   4.396   0.971 -0.4524  0.2133 -0.0635
  994TIP3    H1 3411   0.922   4.448   1.041  0.6544  0.2975  0.5199
  994TIP3    H2 3412   1.051   4.430   0.964 -0.8721  0.9242 -2.2558
  995TIP3   OH2 3413   5.180   3.510   3.299 -0.7148 -0.0374  0.1484
  995TIP3    H1 3414   5.238   3.553   3.237 -1.8964  0.5766 -0.5544
  995TIP3    H2 3415   5.234   3.497   3.377  0.1374  1.2411 -0.2096
  996TIP3   OH2 3416   3.714   4.768   0.054 -0.2695 -0.0573 -0.2654
  996TIP3    H1 3417   3.623   4.755   0.028 -0.7543  0.0274  1.3483
  996TIP3    H2 3418   3.714   4.853   0.100  0.4151 -0.5289  0.6233
  997TIP3   OH2 3419   3.683   1.699   2.829 -0.1917  0.5517  0.5811
  997TIP3    H1 3420   3.600   1.693   2.877 -0.6428  2.1406  0.0135
  997TIP3    H2 3421   3.679   1.626   2.767 -0.7261  0.0244  1.2181
  998TIP3   OH2 3422   3.251   2.705   0.666 -0.4518  0.0352 -0.3860
  998TIP3    H1 3423   3.247   2.642   0.738  1.6744 -0.2076 -0.4401
  998TIP3    H2 3424   3.265   2.651   0.588  0.9792  0.5306 -0.4823
  999TIP3   OH2 3425   0.687   2.596   1.931 -0.1530 -0.2846  0.2783
  999TIP3    H1 3426   0.762   2.538   1.946 -0.0981  0.5383  3.6178
  999TIP3    H2 3427   0.610   2.540   1.944 -0.0978 -0.3006  0.5477
 1000TIP3   OH2 3428   1.368   2.156   4.697 -0.2117 -0.0669  0.8502
 1000TIP3    H1 3429   1.444   2.099   4.687 -0.0109  0.1912  0.8923
 1000TIP3    H2 3430   1.404   2.238   4.733 -0.7465 -0.5382  2.4951
 1001TIP3   OH2 3431   2.553   2.843   0.917 -0.7925 -0.0784  0.1902
 1001TIP3    H1 3432   2.492   2.834   0.844 -0.3116 -1.1287 -0.1019
 1001TIP3    H2 3433   2.514   2.792   0.988 -1.1097  0.6902  0.5718
 1002TIP3   OH2 3434   2.740   1.116   4.024  0.5550 -0.0105  0.1864
 1002TIP3    H1 3435   2.821   1.167   4.023  0.2988  0.3829 -0.6720
 1002TIP3    H2 3436   2.756   1.049   4.091  2.2410 -0.9692 -1.1291
 1003TIP3   OH2 3437   4.351   1.424   0.893  0.1896 -0.1569  0.2204
 1003TIP3    H1 3438   4.301   1.499   0.864  1.2543  0.2487 -0.6023
 1003TIP3    H2 3439   4.384   1.383   0.812  1.3763 -0.2677  0.7379
 1004TIP3   OH2 3440   4.581   1.975   1.409 -0.0272  1.2061  0.3131
 1004TIP3    H1 3441   4.527   1.924   1.469  0.6000 -2.0799 -1.8242
 1004TIP3    H2 3442   4.520   2.032   1.363 -1.2961 -0.5366 -0.1631
 1005TIP3   OH2 3443   3.898   2.238   0.597  0.1068  0.1364 -0.3226
 1005TIP3    H1 3444   3.804   2.226   0.590  0.1588  0.3698 -1.4490
 1005TIP3    H2 3445   3.908   2.328   0.630 -0.0626  0.1225 -0.2336
 1006TIP3   OH2 3446   3.376   5.131   1.305 -0.3106 -0.6328  0.9633
 1006TIP3    H1 3447   3.460   5.128   1.351 -0.6734 -1.2827  1.5989
 1006TIP3    H2 3448   3.394   5.089   1.221 -0.0506 -0.9937  1.1962
 1007TIP3   OH2 3449   0.011   2.637   2.311  0.5221 -0.1092  0.0460
 1007TIP3    H1 3450   0.010   2.715   2.368 -0.7236  0.3360 -0.5662
 1007TIP3    H2 3451   0.087   2.650   2.254 -0.9130  1.7539 -1.5088
 1008TIP3   OH2 3452   3.147   1.167   5.937 -0.0821 -0.6559  0.4217
 1008TIP3    H1 3453   3.103   1.141   6.018  1.2716 -1.0894  1.0311
 1008TIP3    H2 3454   3.240   1.170   5.960  0.0352  2.3878 -0.2492
 1009TIP3   OH2 3455   2.526   2.647   1.495 -0.3821 -0.1156 -0.4138
 1009TIP3    H1 3456   2.561   2.558   1.498  2.4299  0.9920  1.3342
 1009TIP3    H2 3457   2.599   2.701   1.464 -1.1908  1.9563  1.1508
 1010TIP3   OH2 3458   4.217   2.221   5.552  0.4042 -0.3218  0.5139
 1010TIP3    H1 3459   4.274   2.298   5.548  1.1798 -0.9092  0.0828
 1010TIP3    H2 3460   4.195   2.212   5.644 -1.5567  1.7665  0.2850
 1011TIP3   OH2 3461   1.130   3.904   0.250 -0.5635  0.0036 -0.0286
 1011TIP3    H1 3462   1.088   3.823   0.277  1.4349 -0.6044  1.3225
 1011TIP3    H2 3463   1.068   3.973   0.274 -1.6682 -1.0134  0.0640
 1012TIP3   OH2 3464   1.240   3.227   1.275  0.1116 -0.3748  0.1327
 1012TIP3    H1 3465   1.270   3.172   1.203 -0.8139  0.9965 -1.3319
 1012TIP3    H2 3466   1.159   3.186   1.305  1.9036 -2.4846  2.2292
 1013TIP3   OH2 3467   1.478   1.929   1.344  0.1435 -0.6060  0.4044
 1013TIP3    H1 3468   1.489   2.004   1.403  0.1451 -1.0096  0.9184
 1013TIP3    H2 3469   1.550   1.938   1.282 -0.8240  0.7420 -0.5434
 1014TIP3   OH2 3470   3.163   3.183   5.713 -0.3969 -0.7893 -0.7662
 1014TIP3    H1 3471   3.167   3.213   5.623  0.4948  0.3458 -0.3486
 1014TIP3    H2 3472   3.162   3.263   5.766  1.8666 -1.4652  0.3524
 1015TIP3   OH2 3473   3.926   4.985   2.608 -0.2562  0.3255 -0.8620
 1015TIP3    H1 3474   4.014   5.013   2.634 -0.6962  0.7857  0.1807
 1015TIP3    H2 3475   3.907   5.035   2.529  1.6237 -2.0465 -2.9059
 1016TIP3   OH2 3476   1.836   2.429   0.125 -0.0525 -0.3199 -0.0121
 1016TIP3    H1 3477   1.750   2.451   0.162 -0.7370 -0.9865 -1.1937
 1016TIP3    H2 3478   1.833   2.334   0.114  0.9684 -0.3855  0.2454
 1017TIP3   OH2 3479   4.006   2.712   5.194  0.3400  0.4765  0.2330
 1017TIP3    H1 3480   4.023   2.725   5.287 -1.2066 -0.4527  0.6605
 1017TIP3    H2 3481   3.922   2.757   5.178  0.4748  0.4334 -0.6571
 1018TIP3   OH2 3482   2.249   1.784   0.260 -0.3551  0.3710 -0.0705
 1018TIP3    H1 3483   2.340   1.753   0.270  0.2892  2.0466 -0.5154
 1018TIP3    H2 3484   2.255   1.852   0.193 -2.0616  0.0402 -0.5574
 1019TIP3   OH2 3485   4.319   5.712   2.520  0.2749  0.4561 -0.1476
 1019TIP3    H1 3486   4.403   5.739   2.558  0.4778  1.1040 -1.0357
 1019TIP3    H2 3487   4.293   5.787   2.466 -1.0959  0.4346  0.4872
 1020TIP3   OH2 3488   2.264   1.229   0.577 -0.1452 -0.0478  0.1105
 1020TIP3    H1 3489   2.176   1.190   0.577  0.2258 -0.9390 -1.6504
 1020TIP3    H2 3490   2.310   1.185   0.506  2.4092 -1.0331  2.3012
 1021TIP3   OH2 3491   1.250   3.729   2.646 -0.2515  0.2026 -1.0417
 1021TIP3    H1 3492   1.234   3.648   2.598  1.0482  0.4627 -1.9480
 1021TIP3    H2 3493   1.286   3.789   2.581 -0.9934  1.4451 -0.3343
 1022TIP3   OH2 3494   1.558   3.022   1.573 -0.0405 -0.2550  0.3983
 1022TIP3    H1 3495   1.594   2.962   1.638 -0.0004  0.9135  1.4920
 1022TIP3    H2 3496   1.537   3.101   1.623 -0.9641  0.2985 -0.8349
 1023TIP3   OH2 3497   1.783   3.589   0.839 -0.0806 -0.4441 -0.4519
 1023TIP3    H1 3498   1.697   3.631   0.836  0.9092  1.6763  0.2260
 1023TIP3    H2 3499   1.787   3.550   0.927  1.0847  2.6414  0.9251
 1024TIP3   OH2 3500   2.677   3.384   0.469  0.2096 -0.1958  0.0517
 1024TIP3    H1 3501   2.705   3.395   0.561  0.9733 -1.1120 -0.0618
 1024TIP3    H2 3502   2.746   3.427   0.419  1.0378 -1.7806 -0.1975
 1025TIP3   OH2 3503   3.844   2.356   2.245  0.2773  0.3191 -0.1682
 1025TIP3    H1 3504   3.854   2.263   2.267  0.7021  0.2519 -0.6477
 1025TIP3    H2 3505   3.901   2.401   2.307 -0.9142  0.3595  0.9154
 1026TIP3   OH2 3506   2.496   1.660   0.289 -0.2081 -0.2999  0.1344
 1026TIP3    H1 3507   2.499   1.577   0.336 -1.0751  0.5484  1.7285
 1026TIP3    H2 3508   2.494   1.635   0.197  0.6361 -2.0170  0.5631
 1027TIP3   OH2 3509   1.560   4.018   3.975 -0.3089 -0.0013  0.1191
 1027TIP3    H1 3510   1.636   4.016   3.917 -0.8387 -0.4399 -0.5735
 1027TIP3    H2 3511   1.557   3.930   4.014  0.8639  0.7295  1.8968
 1028TIP3   OH2 3512   3.609   2.078   3.731 -0.3600 -0.6927  0.1717
 1028TIP3    H1 3513   3.669   2.114   3.666 -0.2218  0.6539  1.0371
 1028TIP3    H2 3514   3.621   1.983   3.724 -0.3972 -0.5750 -1.7959
 1029TIP3   OH2 3515   2.762   4.426   1.192  0.3007  0.3963 -0.2647
 1029TIP3    H1 3516   2.818   4.381   1.129  2.6376  0.4634  1.6931
 1029TIP3    H2 3517   2.821   4.449   1.264 -1.8015  2.4807  0.8513
 1030TIP3   OH2 3518   3.543   3.552   2.068  0.5753  0.0370  0.3538
 1030TIP3    H1 3519   3.548   3.465   2.108 -0.1974  0.5109  1.5312
 1030TIP3    H2 3520   3.463   3.590   2.104  0.7593  1.1296 -0.3677
 1031TIP3   OH2 3521   2.559   3.277   2.298 -0.0965  0.2490 -0.4138
 1031TIP3    H1 3522   2.597   3.201   2.255  0.1600  0.9570 -1.4775
 1031TIP3    H2 3523   2.544   3.340   2.226 -1.8540  0.5631  0.1900
 1032TIP3   OH2 3524   3.394   3.632   4.244  0.5489 -0.0813  0.0638
 1032TIP3    H1 3525   3.476   3.625   4.294  1.3631 -1.3414 -1.4113
 1032TIP3    H2 3526   3.325   3.623   4.310  1.5798  0.8911  1.3180
 1033TIP3   OH2 3527   0.908   3.404   2.187  0.1774 -0.6261 -0.2003
 1033TIP3    H1 3528   0.825   3.417   2.234  1.1840  2.0709  0.9595
 1033TIP3    H2 3529   0.888   3.430   2.097  0.3709  2.6343  0.6403
 1034TIP3   OH2 3530   3.552   0.923   0.602  0.7133  0.1639  0.1468
 1034TIP3    H1 3531   3.563   0.898   0.694  1.0093 -2.9667 -0.6833
 1034TIP3    H2 3532   3.581   0.846   0.553 -3.3563  0.1960 -2.5235
 1035TIP3   OH2 3533   4.318   2.182   4.093 -0.0599  0.0216  0.3487
 1035TIP3    H1 3534   4.259   2.140   4.031  0.5876 -4.3444  2.5388
 1035TIP3    H2 3535   4.403   2.141   4.079  1.3750  2.7534  0.5988
 1036TIP3   OH2 3536   1.099   3.439   1.364  0.3016  0.2553 -0.0836
 1036TIP3    H1 3537   1.174   3.380   1.375  0.6502  0.6038 -0.5873
 1036TIP3    H2 3538   1.052   3.404   1.289 -0.7370 -0.6953  0.9962
 1037TIP3   OH2 3539   3.946   2.645   2.808  0.2928 -0.4297 -0.1118
 1037TIP3    H1 3540   3.936   2.558   2.769  0.6499 -0.7850  0.5915
 1037TIP3    H2 3541   4.018   2.636   2.870  1.2671  0.7158 -1.0415
 1038TIP3   OH2 3542   2.379   2.867   0.694 -0.0288 -0.5102  0.3525
 1038TIP3    H1 3543   2.409   2.898   0.608 -0.3819 -1.3729 -0.0921
 1038TIP3    H2 3544   2.361   2.774   0.680 -0.6334 -0.5236  1.2218
 1039TIP3   OH2 3545   1.434   2.956   1.980 -0.3983 -0.2948 -0.2327
 1039TIP3    H1 3546   1.342   2.968   1.960 -0.6140 -0.0738  0.8442
 1039TIP3    H2 3547   1.438   2.876   2.032 -0.1502  0.3177  0.7269
 1040TIP3   OH2 3548   1.675   1.325   3.704  0.1969  0.1676 -0.2997
 1040TIP3    H1 3549   1.621   1.403   3.700  0.6831  0.5767  0.9652
 1040TIP3    H2 3550   1.622   1.261   3.751  0.4284  0.2536  0.0788
 1041TIP3   OH2 3551   3.535   2.879   5.992  0.5281 -0.1224  0.1544
 1041TIP3    H1 3552   3.604   2.838   5.940  0.3657 -0.8181  0.4836
 1041TIP3    H2 3553   3.575   2.959   6.026  1.4864 -1.0153  1.1413
 1042TIP3   OH2 3554   3.891   1.856   2.739 -0.0154 -0.0935  0.2562
 1042TIP3    H1 3555   3.809   1.810   2.759 -0.5448 -0.4490 -2.5299
 1042TIP3    H2 3556   3.959   1.790   2.752 -0.2472 -0.0947  1.5532
 1043TIP3   OH2 3557   2.366   2.032   1.620 -0.2527  0.2504  0.4680
 1043TIP3    H1 3558   2.292   2.018   1.561 -0.9857  1.7558  0.9901
 1043TIP3    H2 3559   2.374   1.951   1.669  0.8062 -1.2739 -2.1631
 1044TIP3   OH2 3560   2.787   1.070   3.565  0.2565 -0.4072 -0.1715
 1044TIP3    H1 3561   2.847   0.996   3.564 -1.0529 -1.6413  3.0545
 1044TIP3    H2 3562   2.839   1.143   3.598 -0.0925 -1.6757  3.4555
 1045TIP3   OH2 3563   5.012   1.454   1.088 -0.1954  0.3335  0.2316
 1045TIP3    H1 3564   5.066   1.499   1.024 -0.8855  0.7208 -0.0841
 1045TIP3    H2 3565   4.967   1.386   1.039 -0.2741  0.2459  0.4225
 1046TIP3   OH2 3566   2.016   1.991   2.102 -0.1003  0.0749  0.9470
 1046TIP3    H1 3567   2.074   1.930   2.056  0.7016  0.2990  1.6428
 1046TIP3    H2 3568   1.930   1.977   2.062  0.8588  1.3469 -1.7050
 1047TIP3   OH2 3569   2.553   2.876   4.315 -0.3887 -0.2920 -0.1582
 1047TIP3    H1 3570   2.524   2.824   4.390  0.4654  1.1642  1.2336
 1047TIP3    H2 3571   2.496   2.954   4.317 -0.9904 -0.6920 -1.5986
 1048TIP3   OH2 3572   3.622   2.495   1.603  0.1114 -0.0748  0.3070
 1048TIP3    H1 3573   3.565   2.479   1.528  0.2418  0.3024  0.1271
 1048TIP3    H2 3574   3.688   2.556   1.571  0.1317  0.1381  0.7453
 1049TIP3   OH2 3575   1.237   2.146   2.074 -0.5618  0.6264 -0.3810
 1049TIP3    H1 3576   1.240   2.102   1.989  0.2272  0.2703 -0.1812
 1049TIP3    H2 3577   1.315   2.113   2.120 -2.5216 -1.4180  1.5766
 1050TIP3   OH2 3578   3.889   0.665   2.892  0.7448  0.0367  0.2654
 1050TIP3    H1 3579   3.934   0.747   2.873 -0.8738  0.5689 -1.5506
 1050TIP3    H2 3580   3.818   0.662   2.828 -1.3911 -1.0704  2.5946
 1051TIP3   OH2 3581   0.343   0.186   0.908 -0.1678  0.1692  0.4125
 1051TIP3    H1 3582   0.370   0.274   0.882  0.3375  0.1815  0.9785
 1051TIP3    H2 3583   0.317   0.194   0.999  0.2819 -0.3523  0.5923
 1052TIP3   OH2 3584   2.872   2.131   1.199  0.1440 -0.7409  0.6520
 1052TIP3    H1 3585   2.808   2.174   1.142  0.7365  0.5792  0.9636
 1052TIP3    H2 3586   2.819   2.087   1.266 -0.4638 -0.0323  0.6417
 1053TIP3   OH2 3587   2.151   1.756   1.903 -0.7975 -0.9221 -0.1190
 1053TIP3    H1 3588   2.231   1.775   1.855  0.2808 -0.9592  1.6284
 1053TIP3    H2 3589   2.161   1.666   1.933 -0.2235 -0.0575  2.4470
 1054TIP3   OH2 3590   1.715   2.756   2.586  0.4722 -0.0267 -0.4594
 1054TIP3    H1 3591   1.764   2.820   2.637  1.9402  0.1009 -1.9901
 1054TIP3    H2 3592   1.640   2.805   2.551 -0.2026  0.0296  1.0244
 1055TIP3   OH2 3593   1.698   2.563   2.344 -0.1025  0.0389 -0.0190
 1055TIP3    H1 3594   1.713   2.621   2.419 -0.2175 -1.2284  1.0124
 1055TIP3    H2 3595   1.735   2.610   2.270  0.1947  1.2380  0.8587
 1056TIP3   OH2 3596   1.203   4.096   5.717  0.2877 -0.0449 -0.1023
 1056TIP3    H1 3597   1.126   4.109   5.772  0.5829  1.9244 -0.1201
 1056TIP3    H2 3598   1.258   4.036   5.767  1.0603  2.5901  2.3218
 1057TIP3   OH2 3599   1.310   1.314   1.126  0.3819 -0.4731 -0.2938
 1057TIP3    H1 3600   1.374   1.296   1.195  1.0643  0.8047 -0.5807
 1057TIP3    H2 3601   1.225   1.315   1.171  0.6249 -1.4642  0.2040
 1058TIP3   OH2 3602   1.813   4.078   0.412 -0.4440  0.6977 -0.0942
 1058TIP3    H1 3603   1.829   4.019   0.338 -2.6264  0.3419 -0.3029
 1058TIP3    H2 3604   1.807   4.020   0.488 -3.2656  0.5224 -0.3943
 1059TIP3   OH2 3605   1.767   3.624   0.407 -0.1987  0.1126 -0.1975
 1059TIP3    H1 3606   1.684   3.585   0.381 -0.7546  0.6056  0.8015
 1059TIP3    H2 3607   1.824   3.550   0.426 -0.0795 -0.2464 -1.8268
 1060TIP3   OH2 3608   3.070   3.160   3.011 -0.2142 -0.0587 -1.0262
 1060TIP3    H1 3609   3.057   3.086   3.070  1.1527 -0.1440 -0.8151
 1060TIP3    H2 3610   2.987   3.168   2.964 -0.5566 -1.3900 -0.6748
 1061TIP3   OH2 3611   3.486   4.210   1.639  0.4222  0.1793  0.2188
 1061TIP3    H1 3612   3.475   4.288   1.694  1.3398 -0.0375  0.7261
 1061TIP3    H2 3613   3.397   4.175   1.629  0.0895  0.9272  0.5246
 1062TIP3   OH2 3614   3.203   4.828   2.468  0.7731 -0.3569  0.6774
 1062TIP3    H1 3615   3.200   4.767   2.542 -0.5452 -0.2351  0.7379
 1062TIP3    H2 3616   3.111   4.841   2.444  1.1426  0.3097 -0.4030
 1063TIP3   OH2 3617   5.977   1.259   0.661 -0.2118  0.1118  0.3365
 1063TIP3    H1 3618   5.989   1.307   0.579 -0.6715 -0.6481 -0.1867
 1063TIP3    H2 3619   6.059   1.211   0.672  0.4989  1.4780  1.1892
 1064TIP3   OH2 3620   2.744   0.250   1.398 -0.3053  0.3292 -0.4388
 1064TIP3    H1 3621   2.673   0.195   1.432 -0.6765  1.6331  0.9365
 1064TIP3    H2 3622   2.775   0.204   1.320 -1.4474 -1.1825 -0.0128
 1065TIP3   OH2 3623   4.711   0.907   1.963  0.5001 -0.0903  0.2321
 1065TIP3    H1 3624   4.740   0.991   1.997  0.9511  0.3405 -1.1615
 1065TIP3    H2 3625   4.625   0.893   2.002  0.4308  1.0102  0.4836
 1066TIP3   OH2 3626   5.574   2.764   0.850 -0.5640 -0.1495  0.0216
 1066TIP3    H1 3627   5.597   2.741   0.760  0.1226  2.3401 -0.4924
 1066TIP3    H2 3628   5.518   2.692   0.880 -0.4732 -1.2114 -2.2506
 1067TIP3   OH2 3629   3.103   3.715   1.435  0.4218  0.0680 -0.6482
 1067TIP3    H1 3630   3.157   3.747   1.508 -0.3948  0.0291 -0.0231
 1067TIP3    H2 3631   3.166   3.696   1.365  1.5829 -3.0439  1.1385
 1068TIP3   OH2 3632   2.951   3.151   0.886  0.1211  0.2207  0.0537
 1068TIP3    H1 3633   2.946   3.224   0.824  1.1708  0.5483  0.3666
 1068TIP3    H2 3634   2.976   3.076   0.832 -1.2889 -0.0071 -0.3295
 1069TIP3   OH2 3635   5.285   0.245   5.817  0.5229 -0.2179 -0.2488
 1069TIP3    H1 3636   5.366   0.207   5.851  1.0399  0.6358 -0.5199
 1069TIP3    H2 3637   5.218   0.180   5.837  1.2658 -0.9015  0.0290
 1070TIP3   OH2 3638   4.502   2.053   0.625  0.6790 -0.7135 -0.0670
 1070TIP3    H1 3639   4.563   2.024   0.693 -0.9151 -3.6059  0.1858
 1070TIP3    H2 3640   4.416   2.023   0.655 -0.4899  0.6995 -1.8705
 1071TIP3   OH2 3641   5.691   0.770   1.560 -0.4181 -0.8497  0.6117
 1071TIP3    H1 3642   5.686   0.783   1.654  0.7057 -2.1097  0.8536
 1071TIP3    H2 3643   5.622   0.706   1.540 -2.3841  1.3327  0.1824
 1072TIP3   OH2 3644   5.565   3.093   0.073  0.1841 -0.1472 -0.3467
 1072TIP3    H1 3645   5.561   3.174   0.124  0.5907  0.8486 -1.8523
 1072TIP3    H2 3646   5.555   3.023   0.138 -0.1796  1.0999  0.9776
 1073TIP3   OH2 3647   3.423   2.775   5.638  0.0844 -0.0860  0.0826
 1073TIP3    H1 3648   3.515   2.749   5.630 -0.1473 -1.2004  0.8829
 1073TIP3    H2 3649   3.406   2.774   5.732 -1.0364 -0.9443 -0.1263
 1074TIP3   OH2 3650   3.050   2.736   1.571 -0.7185 -0.2777  0.1867
 1074TIP3    H1 3651   3.093   2.677   1.633 -0.5990  1.4102  1.7753
 1074TIP3    H2 3652   3.088   2.822   1.590 -1.6064  0.4750 -1.3896
 1075TIP3   OH2 3653   2.404   1.634   5.290  0.5134  0.3022 -0.2265
 1075TIP3    H1 3654   2.335   1.690   5.253  1.6490  0.4904 -2.1376
 1075TIP3    H2 3655   2.476   1.641   5.227  1.4640 -1.6232  0.6199
 1076TIP3   OH2 3656   4.232   2.890   5.079  0.0930  0.5336 -0.3719
 1076TIP3    H1 3657   4.157   2.908   5.021 -0.2125  0.0810 -0.1167
 1076TIP3    H2 3658   4.199   2.825   5.141  0.3048  1.2986  0.5500
 1077TIP3   OH2 3659   2.764   0.670   4.205  0.4960  0.0266 -0.2054
 1077TIP3    H1 3660   2.759   0.661   4.300  0.6525 -0.0269 -0.2030
 1077TIP3    H2 3661   2.673   0.660   4.176  0.3963  0.4180 -0.0305
 1078TIP3   OH2 3662   4.142   1.456   4.330  0.1225 -0.3180 -0.6326
 1078TIP3    H1 3663   4.103   1.435   4.415  0.2893  0.8598 -0.2584
 1078TIP3    H2 3664   4.163   1.371   4.292 -4.4862 -1.1479 -1.6715
 1079TIP3   OH2 3665   4.487   5.254   2.090 -0.8547  0.1512  0.4553
 1079TIP3    H1 3666   4.530   5.254   2.175 -1.4372  0.4951  0.7589
 1079TIP3    H2 3667   4.516   5.174   2.047 -1.0898 -0.3662  1.2552
 1080TIP3   OH2 3668   0.904   2.571   1.148 -0.0475 -0.6023 -0.2811
 1080TIP3    H1 3669   0.843   2.609   1.086 -1.2246 -0.5783  0.8710
 1080TIP3    H2 3670   0.957   2.645   1.178 -1.5729 -0.0184  1.0904
 1081TIP3   OH2 3671   0.246   4.992   2.164 -0.3140  0.2778 -0.2873
 1081TIP3    H1 3672   0.226   4.955   2.250 -2.2440 -2.0231 -1.6638
 1081TIP3    H2 3673   0.320   4.940   2.131 -0.5286  0.1746 -0.6161
 1082TIP3   OH2 3674   4.267   2.774   0.260 -0.4484  0.5483 -0.2323
 1082TIP3    H1 3675   4.297   2.701   0.206  0.4418  2.1821 -2.0024
 1082TIP3    H2 3676   4.345   2.801   0.310 -1.7161 -2.2227  3.4887
 1083TIP3   OH2 3677   6.004   1.785   2.853  0.1910 -0.2539  0.1781
 1083TIP3    H1 3678   5.970   1.874   2.851 -1.2771 -0.8231 -0.5034
 1083TIP3    H2 3679   6.071   1.783   2.785  1.2362  0.7077  1.1467
 1084TIP3   OH2 3680   2.417   1.768   3.334 -0.3791 -0.1391  0.7170
 1084TIP3    H1 3681   2.505   1.741   3.306 -0.3572 -1.4285  1.9860
 1084TIP3    H2 3682   2.416   1.753   3.428 -1.9378 -0.0515  0.7273
 1085TIP3   OH2 3683   2.715   3.216   5.282  0.1696  0.3390 -0.3581
 1085TIP3    H1 3684   2.657   3.267   5.339 -0.5897 -0.1013 -0.7284
 1085TIP3    H2 3685   2.761   3.157   5.342 -2.2332 -1.6588 -0.4149
 1086TIP3   OH2 3686   5.258   2.805   0.693  0.0172 -0.2719 -0.0298
 1086TIP3    H1 3687   5.306   2.723   0.699  4.3494  2.1769  1.1891
 1086TIP3    H2 3688   5.270   2.834   0.603 -0.7462 -0.5450 -0.2202
 1087TIP3   OH2 3689   3.007   0.531   3.100  0.1595  0.2074 -0.2002
 1087TIP3    H1 3690   3.053   0.466   3.047  0.4462 -0.2750  0.6294
 1087TIP3    H2 3691   2.971   0.482   3.173 -3.9602  0.1131 -2.1491
 1088TIP3   OH2 3692   3.220   6.060   0.709  0.1049 -0.1331  0.1212
 1088TIP3    H1 3693   3.130   6.028   0.706  0.2416 -0.4352 -1.0305
 1088TIP3    H2 3694   3.252   6.033   0.795 -0.4399 -1.3142 -0.0375
 1089TIP3   OH2 3695   3.590   2.404   0.897  0.3339  0.1435  0.4823
 1089TIP3    H1 3696   3.631   2.317   0.898  1.7469  0.8053  1.1106
 1089TIP3    H2 3697   3.501   2.389   0.928  0.0759 -1.3151 -0.8787
 1090TIP3   OH2 3698   1.734   2.299   0.521  0.0387  0.1304  0.4594
 1090TIP3    H1 3699   1.715   2.368   0.583 -2.2710 -0.2415  0.2034
 1090TIP3    H2 3700   1.693   2.328   0.439  1.5985 -0.1656 -0.4423
 1091TIP3   OH2 3701   5.158   0.318   2.174  0.2213  0.1677 -0.0239
 1091TIP3    H1 3702   5.202   0.235   2.193  1.3564  0.3979 -1.6009
 1091TIP3    H2 3703   5.193   0.378   2.240 -1.4598 -0.8405  1.8662
 1092TIP3   OH2 3704   1.396   2.500   1.323 -0.5712 -0.1956  0.1691
 1092TIP3    H1 3705   1.386   2.539   1.236  0.2292  1.5986  0.8738
 1092TIP3    H2 3706   1.479   2.536   1.356 -1.2239 -0.3098  1.9719
 1093TIP3   OH2 3707   1.154   2.620   0.192 -0.0283 -0.0055  0.0021
 1093TIP3    H1 3708   1.240   2.621   0.150 -0.9082 -1.1475 -1.9098
 1093TIP3    H2 3709   1.093   2.600   0.121 -1.7037 -0.7830  1.6183
 1094TIP3   OH2 3710   2.948   4.477   2.355 -0.0410 -0.0277  0.0076
 1094TIP3    H1 3711   2.858   4.454   2.332 -0.1543 -1.4601  1.7980
 1094TIP3    H2 3712   2.976   4.408   2.414  1.4706  1.6231  1.2704
 1095TIP3   OH2 3713   4.136   1.991   6.072  0.2322  0.0403 -0.1197
 1095TIP3    H1 3714   4.084   2.000   6.152 -0.1701  0.7188 -0.4435
 1095TIP3    H2 3715   4.172   1.903   6.076  0.7024  0.2698  1.0976
 1096TIP3   OH2 3716   4.922   1.071   2.705 -0.0228 -0.2009  0.6203
 1096TIP3    H1 3717   4.884   1.053   2.619 -1.2612  0.0944  1.1010
 1096TIP3    H2 3718   4.983   0.999   2.720  0.5872  0.0184 -0.7287
 1097TIP3   OH2 3719   3.195   4.694   1.830 -0.3880 -0.2032 -0.1667
 1097TIP3    H1 3720   3.158   4.698   1.742  1.0243 -0.2179 -0.7796
 1097TIP3    H2 3721   3.201   4.600   1.848  2.1254 -0.3210 -1.3108
 1098TIP3   OH2 3722   1.947   3.594   5.652  0.2156  0.2267 -0.4901
 1098TIP3    H1 3723   2.007   3.529   5.614  0.1442 -0.2583  0.2088
 1098TIP3    H2 3724   1.986   3.679   5.631  0.7866 -0.0712 -0.6320
 1099TIP3   OH2 3725   1.392   2.549   0.024 -0.1951 -0.0010 -1.0552
 1099TIP3    H1 3726   1.349   2.522  -0.058 -1.3373 -0.0838 -0.4456
 1099TIP3    H2 3727   1.378   2.475   0.083  1.0713 -0.1502 -0.9281
 1100TIP3   OH2 3728   4.969   2.412   0.886  0.2820 -0.1797 -0.3097
 1100TIP3    H1 3729   4.965   2.321   0.916  1.3962  0.2827  1.3311
 1100TIP3    H2 3730   4.913   2.460   0.946 -0.0580  0.2682 -0.9792
 1101TIP3   OH2 3731   4.594   2.440   6.006  0.0660 -0.4583 -0.4120
 1101TIP3    H1 3732   4.597   2.470   6.096  0.8201  0.4733 -0.7437
 1101TIP3    H2 3733   4.519   2.381   6.003  0.4690 -1.0501  0.9874
 1102TIP3   OH2 3734   1.519   1.399   1.684  0.1499  0.1984 -0.2695
 1102TIP3    H1 3735   1.505   1.336   1.754 -0.1720  0.4409 -0.1137
 1102TIP3    H2 3736   1.447   1.384   1.623 -0.7740  1.4035  0.5036
 1103TIP3   OH2 3737   5.240   1.230   2.143  0.1227 -0.6062 -0.0820
 1103TIP3    H1 3738   5.324   1.187   2.130  0.6102  0.4701 -0.6083
 1103TIP3    H2 3739   5.261   1.324   2.145 -1.0912 -0.3143 -0.5011
 1104TIP3   OH2 3740   0.911   2.844   6.062  0.2441 -0.1871  0.1940
 1104TIP3    H1 3741   0.954   2.765   6.093 -0.9944 -1.2355 -0.6995
 1104TIP3    H2 3742   0.941   2.854   5.971  1.7895  1.3833  0.8495
 1105TIP3   OH2 3743   2.656   2.779   5.469  0.1029  0.3237  0.1580
 1105TIP3    H1 3744   2.651   2.708   5.533  0.2918 -0.4303 -0.6518
 1105TIP3    H2 3745   2.700   2.851   5.515  0.8508 -0.4578  0.6644
 1106TIP3   OH2 3746   2.582   2.378   1.942 -0.0083  0.0131  0.0675
 1106TIP3    H1 3747   2.575   2.305   1.881  0.1327  0.8714 -0.9960
 1106TIP3    H2 3748   2.669   2.370   1.981  0.2320 -0.0572 -0.4795
 1107TIP3   OH2 3749   1.867   2.186   5.421 -0.4256  0.3416 -0.6443
 1107TIP3    H1 3750   1.845   2.176   5.328 -1.1909  0.2160 -0.4576
 1107TIP3    H2 3751   1.803   2.130   5.466  1.4768 -1.5292 -0.1796
 1108TIP3   OH2 3752   0.873   4.421   5.030 -0.0598 -0.8669  0.3857
 1108TIP3    H1 3753   0.946   4.449   4.975  0.4856 -1.4595  0.7832
 1108TIP3    H2 3754   0.798   4.414   4.971 -0.6531  3.0343  0.5869
 1109TIP3   OH2 3755   4.524   2.272   5.047  0.2096  0.4942 -0.0851
 1109TIP3    H1 3756   4.536   2.335   5.117 -1.8235  1.9770 -1.0221
 1109TIP3    H2 3757   4.495   2.324   4.972  0.4678 -1.2976 -1.4726
 1110TIP3   OH2 3758   1.585   1.677   0.800 -0.0642 -0.0364 -0.0492
 1110TIP3    H1 3759   1.599   1.750   0.860 -0.8989  1.6861 -1.8882
 1110TIP3    H2 3760   1.511   1.629   0.836 -0.0221  0.4884  0.7482
 1111TIP3   OH2 3761   3.417   4.862   0.624 -0.4618  0.1563 -0.0913
 1111TIP3    H1 3762   3.371   4.838   0.704 -0.9659  0.9986 -0.1238
 1111TIP3    H2 3763   3.348   4.864   0.557 -0.1508  0.0877 -0.4144
 1112TIP3   OH2 3764   1.570   3.962   0.781 -0.3019 -0.1533 -0.4414
 1112TIP3    H1 3765   1.544   3.885   0.833 -0.6379 -1.2357 -2.1825
 1112TIP3    H2 3766   1.598   3.926   0.697  2.8315  1.3711 -0.1122
 1113TIP3   OH2 3767   3.053   0.241   2.697 -0.1769 -0.2321 -0.1489
 1113TIP3    H1 3768   3.017   0.246   2.785 -0.4011  2.5789 -0.3798
 1113TIP3    H2 3769   3.148   0.243   2.710 -0.2256  1.5243 -0.0407
 1114TIP3   OH2 3770   3.395   1.234   2.217  0.8213 -0.0188  0.0971
 1114TIP3    H1 3771   3.463   1.206   2.156  1.2744 -0.3525  0.7443
 1114TIP3    H2 3772   3.423   1.199   2.301 -0.3017 -0.4024  0.3213
 1115TIP3   OH2 3773   3.253   4.532   0.431 -0.4050  0.5078  0.0078
 1115TIP3    H1 3774   3.300   4.526   0.348  2.1300  1.3329  1.3126
 1115TIP3    H2 3775   3.215   4.445   0.444  0.6538 -0.1434 -1.1868
 1116TIP3   OH2 3776   4.812   1.539   2.928  0.1084  0.1596 -0.3177
 1116TIP3    H1 3777   4.836   1.469   2.869 -0.6095  0.0247 -0.4619
 1116TIP3    H2 3778   4.817   1.501   3.015 -0.9706 -0.2917 -0.4397
 1117TIP3   OH2 3779   4.138   0.010   2.014 -0.1729  0.5244 -0.2391
 1117TIP3    H1 3780   4.211  -0.038   1.974  0.0233  0.5441  0.0897
 1117TIP3    H2 3781   4.061  -0.021   1.968 -0.0023  0.1825 -0.2987
 1118TIP3   OH2 3782   0.605   1.508   3.362  0.3449  0.3084 -0.1520
 1118TIP3    H1 3783   0.609   1.524   3.456 -0.3218  1.1247 -0.2515
 1118TIP3    H2 3784   0.696   1.503   3.334  0.5468 -0.8661  0.6824
 1119TIP3   OH2 3785   5.257   0.948   2.390  0.4061 -0.1583 -0.1890
 1119TIP3    H1 3786   5.240   1.027   2.440  1.0937  0.9964 -1.7571
 1119TIP3    H2 3787   5.318   0.975   2.321  1.7305 -2.3423  0.0710
 1120TIP3   OH2 3788   0.113   2.269   2.454 -0.5088 -0.0296 -0.4518
 1120TIP3    H1 3789   0.168   2.200   2.418  1.0406  0.2452  1.3267
 1120TIP3    H2 3790   0.076   2.313   2.377  2.1288  0.0789 -1.6998
 1121TIP3   OH2 3791   5.778   4.681   0.595  0.1027 -0.0662 -0.6458
 1121TIP3    H1 3792   5.788   4.645   0.507  0.1270 -1.8673  0.0674
 1121TIP3    H2 3793   5.866   4.678   0.633 -0.1883 -0.7960 -0.0126
 1122TIP3   OH2 3794   4.972   3.005   1.983  0.1563 -0.9131  0.2546
 1122TIP3    H1 3795   4.957   2.965   1.898 -0.4565 -0.4640  0.1464
 1122TIP3    H2 3796   5.062   2.982   2.005  1.4349  1.6389 -1.9816
 1123TIP3   OH2 3797   5.748   2.080   0.647 -0.0883 -0.0270 -0.5755
 1123TIP3    H1 3798   5.667   2.043   0.682  0.7544  0.4897  2.0564
 1123TIP3    H2 3799   5.747   2.056   0.554 -3.6225  0.6272 -0.7992
 1124TIP3   OH2 3800   4.712   3.798   0.968  0.1887 -0.7344 -0.6638
 1124TIP3    H1 3801   4.673   3.885   0.968  0.1919 -0.7311 -1.2032
 1124TIP3    H2 3802   4.702   3.767   1.058  1.4056  0.3662 -0.1340
 1125TIP3   OH2 3803   1.199   1.907   1.888  0.1413 -0.0247 -0.5399
 1125TIP3    H1 3804   1.138   1.916   1.814 -1.7364 -0.1105  0.9707
 1125TIP3    H2 3805   1.147   1.930   1.965  1.8804 -0.6223  0.8398
 1126TIP3   OH2 3806   4.450   5.662   3.170  0.0324  0.0787  0.1607
 1126TIP3    H1 3807   4.405   5.716   3.236 -4.2428 -1.7750 -1.0565
 1126TIP3    H2 3808   4.487   5.589   3.220 -1.4358 -0.2472  0.8079
 1127TIP3   OH2 3809   5.530   1.490   2.305 -0.3405  0.0980 -0.3034
 1127TIP3    H1 3810   5.555   1.581   2.284 -2.2626  0.7144 -0.0304
 1127TIP3    H2 3811   5.456   1.472   2.247  0.2711 -1.4649 -0.6294
 1128TIP3   OH2 3812   4.495   4.384   2.311  0.1816 -0.0304  0.5867
 1128TIP3    H1 3813   4.586   4.376   2.339  0.0053  1.0545  1.4986
 1128TIP3    H2 3814   4.497   4.366   2.217  1.3220 -0.0754  0.6129
 1129TIP3   OH2 3815   0.128   1.042   1.477  0.2226  0.2926 -0.0167
 1129TIP3    H1 3816   0.182   1.070   1.551 -0.1596  0.7124  0.1064
 1129TIP3    H2 3817   0.172   0.964   1.444 -0.0626 -0.3964  1.1835
 1130TIP3   OH2 3818   5.315   3.543   0.111  0.1938 -0.1123  0.2069
 1130TIP3    H1 3819   5.312   3.504   0.024  1.8234  0.3476 -0.0670
 1130TIP3    H2 3820   5.255   3.617   0.106 -0.4074 -0.6287 -0.2555
 1131TIP3   OH2 3821   3.969   0.564   0.495 -0.5844 -0.2924  0.0836
 1131TIP3    H1 3822   3.999   0.642   0.542 -0.4284  0.8159 -1.8032
 1131TIP3    H2 3823   3.893   0.594   0.446 -1.0791 -1.5692  0.0609
 1132TIP3   OH2 3824   5.329   1.755   0.790 -0.4496 -0.4661 -0.6065
 1132TIP3    H1 3825   5.381   1.836   0.789 -0.6982 -0.3016 -1.3649
 1132TIP3    H2 3826   5.353   1.711   0.871  0.0135  0.1653 -0.3972
 1133TIP3   OH2 3827   3.561   1.246   4.594  0.6215 -0.1767  0.8739
 1133TIP3    H1 3828   3.477   1.235   4.639  0.6341 -0.3471  0.8552
 1133TIP3    H2 3829   3.605   1.316   4.643 -0.4901  1.5314 -0.5100
 1134TIP3   OH2 3830   4.958   5.894   0.406  0.2553  0.0895 -0.1724
 1134TIP3    H1 3831   4.934   5.915   0.315 -0.0614 -0.3662 -0.1944
 1134TIP3    H2 3832   4.975   5.979   0.446 -2.9097  0.5408  0.2911
 1135TIP3   OH2 3833   4.611   2.027   2.128 -0.4281 -0.3665 -0.3219
 1135TIP3    H1 3834   4.532   2.056   2.083 -1.0187 -0.2719  0.7732
 1135TIP3    H2 3835   4.671   2.004   2.057 -0.4676  2.1207 -1.2301
 1136TIP3   OH2 3836   4.182   3.891   2.701 -0.3170  0.2993  0.8530
 1136TIP3    H1 3837   4.131   3.812   2.683 -0.6782 -0.1080  3.4576
 1136TIP3    H2 3838   4.260   3.883   2.646 -1.2313 -0.9331 -0.3075
 1137TIP3   OH2 3839   5.801   5.017   2.578  0.1125  0.6250  0.2215
 1137TIP3    H1 3840   5.824   5.065   2.498  3.4062 -1.3137 -0.0889
 1137TIP3    H2 3841   5.788   5.085   2.644  1.0199  2.1119 -1.1006
 1138TIP3   OH2 3842   3.944   0.023   6.059  0.2021  0.0146  0.9314
 1138TIP3    H1 3843   4.001  -0.027   6.001 -0.0008 -0.9898  1.5780
 1138TIP3    H2 3844   3.988   0.020   6.144 -0.2455  0.1919  1.1697
 1139TIP3   OH2 3845   5.664   1.202   2.131 -0.2033  0.1497 -0.3144
 1139TIP3    H1 3846   5.620   1.275   2.089  0.5537  0.6747 -0.2045
 1139TIP3    H2 3847   5.702   1.239   2.211  0.7458 -0.2087 -0.5931
 1140TIP3   OH2 3848   2.492   4.343   1.125  0.6275 -0.3405 -0.6358
 1140TIP3    H1 3849   2.586   4.363   1.127  0.4766  0.2994  0.1329
 1140TIP3    H2 3850   2.485   4.256   1.165  0.9913 -0.7926 -1.5473
 1141TIP3   OH2 3851   1.648   4.650   0.110 -0.3543 -0.4967  0.5819
 1141TIP3    H1 3852   1.629   4.613   0.196 -2.3303 -1.7210 -0.3373
 1141TIP3    H2 3853   1.608   4.588   0.048  2.0863 -0.2877 -1.2774
 1142TIP3   OH2 3854   0.147   5.858   4.229  0.2802 -0.1288 -0.4793
 1142TIP3    H1 3855   0.233   5.828   4.200  0.3950  1.7666 -2.1591
 1142TIP3    H2 3856   0.162   5.948   4.259 -0.9098 -0.1715  0.2813
 1143TIP3   OH2 3857   4.200   0.438   3.138  0.2108 -0.2336  0.3114
 1143TIP3    H1 3858   4.194   0.368   3.203  0.5037  0.2308  0.8325
 1143TIP3    H2 3859   4.123   0.425   3.082  0.9077 -1.7175 -0.3341
 1144TIP3   OH2 3860   0.693   5.049   0.973 -0.6843  0.5058  0.2853
 1144TIP3    H1 3861   0.701   5.139   0.940  2.0552  0.3480  0.3376
 1144TIP3    H2 3862   0.645   5.002   0.905 -1.3378  1.8188 -0.1677
 1145TIP3   OH2 3863   5.672   2.771   6.047 -0.5950  0.9215 -0.6102
 1145TIP3    H1 3864   5.612   2.716   6.097  0.2015  1.8134  1.4155
 1145TIP3    H2 3865   5.620   2.847   6.021 -1.0245  0.4374 -1.1638
 1146TIP3   OH2 3866   5.996   2.468   3.609 -0.0438 -0.3123  0.1043
 1146TIP3    H1 3867   5.908   2.490   3.639  0.3589  0.7033  0.5969
 1146TIP3    H2 3868   6.007   2.375   3.630 -1.3062 -0.6638 -0.7753
 1147TIP3   OH2 3869   4.771   1.771   0.689  0.1468 -0.1977 -0.6440
 1147TIP3    H1 3870   4.692   1.726   0.720  1.1197 -2.0054 -0.7176
 1147TIP3    H2 3871   4.765   1.859   0.726 -1.4852 -0.5760  0.0273
 1148TIP3   OH2 3872   5.180   4.356   0.579 -0.7070 -0.5895  0.0084
 1148TIP3    H1 3873   5.141   4.298   0.513 -2.3506  0.8874 -0.3829
 1148TIP3    H2 3874   5.106   4.410   0.609  0.3667 -0.1175  1.8642
 1149TIP3   OH2 3875   4.620   1.468   1.098  0.0433  0.1702 -0.3352
 1149TIP3    H1 3876   4.535   1.427   1.110  1.2420 -1.5766  2.9627
 1149TIP3    H2 3877   4.616   1.546   1.154  0.5968  0.1008 -0.1998
 1150TIP3   OH2 3878   4.499   3.334   1.102  0.1662  0.2781 -0.6121
 1150TIP3    H1 3879   4.470   3.370   1.186  0.6276  1.7136 -1.0372
 1150TIP3    H2 3880   4.540   3.251   1.124 -3.2221 -1.2818  0.1218
 1151TIP3   OH2 3881   0.829   5.187   0.316  0.3533 -0.3288  0.1819
 1151TIP3    H1 3882   0.908   5.141   0.290 -0.8282 -0.8187 -2.8091
 1151TIP3    H2 3883   0.780   5.124   0.369  0.0769 -1.5389 -1.4692
 1152TIP3   OH2 3884   3.590   1.334   2.760 -0.3004  0.0585  0.3248
 1152TIP3    H1 3885   3.558   1.383   2.835  1.1895  0.4343  0.7180
 1152TIP3    H2 3886   3.665   1.285   2.793 -1.0923 -1.6603 -0.3304
 1153TIP3   OH2 3887   0.317   3.541   1.845  0.9501  0.0650  0.7487
 1153TIP3    H1 3888   0.229   3.574   1.826  1.1321  0.0322 -0.2058
 1153TIP3    H2 3889   0.375   3.608   1.808  1.3260 -0.0038  1.2157
 1154TIP3   OH2 3890   4.597   1.827   1.848  0.3394  0.1651  0.1948
 1154TIP3    H1 3891   4.620   1.735   1.864  1.5118  0.2050 -1.1639
 1154TIP3    H2 3892   4.681   1.871   1.833 -0.3347  1.0758 -1.0650
 1155TIP3   OH2 3893   5.025   1.047   0.365 -0.4374  0.3162  0.2653
 1155TIP3    H1 3894   4.942   1.002   0.351 -1.2444  1.3327  1.6808
 1155TIP3    H2 3895   5.017   1.128   0.315  0.7756 -0.7787 -1.7838
 1156TIP3   OH2 3896   4.837   3.511   1.299  0.2666  0.5550 -0.4419
 1156TIP3    H1 3897   4.880   3.438   1.255 -0.0855 -0.9020  1.5639
 1156TIP3    H2 3898   4.909   3.568   1.326  0.7964 -0.6890  0.8222
 1157TIP3   OH2 3899   4.990   3.800   0.971  0.1326  0.2748 -0.2704
 1157TIP3    H1 3900   5.036   3.721   0.941 -0.8519  0.1812 -1.5566
 1157TIP3    H2 3901   4.912   3.804   0.917 -2.2638 -0.4856  2.9751
 1158TIP3   OH2 3902   4.166   2.450   0.589  0.5739 -0.5299  0.2429
 1158TIP3    H1 3903   4.229   2.521   0.603 -0.0490  0.1648 -0.4454
 1158TIP3    H2 3904   4.171   2.432   0.495 -0.3102 -0.4111  0.1696
 1159TIP3   OH2 3905   3.754   4.883   5.584  0.7649 -0.4364 -0.3276
 1159TIP3    H1 3906   3.739   4.949   5.653  0.0466 -2.1160  1.1739
 1159TIP3    H2 3907   3.709   4.805   5.616  2.6736 -2.0449 -1.4622
 1160TIP3   OH2 3908   5.580   4.105   1.651  0.0132  0.3151  0.1123
 1160TIP3    H1 3909   5.520   4.105   1.577 -0.5669 -0.2074  0.5795
 1160TIP3    H2 3910   5.657   4.152   1.619 -0.5063  0.7003 -0.5970
 1161TIP3   OH2 3911   5.622   3.986   5.896 -0.2922  0.0600  0.1186
 1161TIP3    H1 3912   5.619   3.993   5.991  1.5860  0.7943  0.1543
 1161TIP3    H2 3913   5.564   3.913   5.875 -0.9342  0.0725  1.7920
 1162TIP3   OH2 3914   5.716   4.072   1.143  0.1962  0.1662  0.2379
 1162TIP3    H1 3915   5.721   4.028   1.227  1.6157  0.5327  0.3488
 1162TIP3    H2 3916   5.634   4.040   1.104  0.0916 -0.8381  1.2662
 1163TIP3   OH2 3917   3.169   4.061   1.155 -0.1543  0.0131  0.2017
 1163TIP3    H1 3918   3.173   4.118   1.231 -0.9154 -1.0093  1.0233
 1163TIP3    H2 3919   3.144   3.976   1.190 -1.5777 -0.2171 -1.3290
 1164TIP3   OH2 3920   5.585   1.564   0.653 -0.3391  0.4774  0.0599
 1164TIP3    H1 3921   5.663   1.592   0.702 -0.9159  0.8263  0.8059
 1164TIP3    H2 3922   5.560   1.641   0.601 -1.7103  1.2783  1.8314
 1165TIP3   OH2 3923   3.847   3.534   5.939 -0.3662  0.5730  0.5983
 1165TIP3    H1 3924   3.912   3.471   5.906  0.3221  1.2745  0.6099
 1165TIP3    H2 3925   3.894   3.583   6.006 -0.5865  1.8022 -0.1356
 1166TIP3   OH2 3926   5.187   1.969   1.228  0.0885  0.0815  0.6233
 1166TIP3    H1 3927   5.116   2.032   1.245  1.3179  1.3035  1.3498
 1166TIP3    H2 3928   5.142   1.890   1.200 -1.6596  0.3731  2.4671
 1167TIP3   OH2 3929   0.624   3.833   1.335  0.7067 -0.2114 -0.2531
 1167TIP3    H1 3930   0.699   3.815   1.391 -0.4980 -0.7196  1.2130
 1167TIP3    H2 3931   0.607   3.750   1.291  1.5215  0.1323 -1.2428
 1168TIP3   OH2 3932   3.305   2.870   1.175  0.0584 -0.2997 -0.7633
 1168TIP3    H1 3933   3.292   2.965   1.177  2.2056 -0.0188  2.1212
 1168TIP3    H2 3934   3.224   2.834   1.211 -0.2257  0.5069 -0.5766
 1169TIP3   OH2 3935   3.571   3.313   5.762 -1.0873 -0.8507 -0.4028
 1169TIP3    H1 3936   3.650   3.347   5.721 -1.4996  0.2371 -0.3109
 1169TIP3    H2 3937   3.502   3.326   5.697 -1.1391 -2.0499 -0.5902
 1170TIP3   OH2 3938   4.197   3.055   1.292  0.0835 -0.1071  0.4447
 1170TIP3    H1 3939   4.206   3.070   1.198  1.9687 -0.0386  0.6175
 1170TIP3    H2 3940   4.162   2.966   1.298 -0.5434  0.0784 -0.3237
 1171TIP3   OH2 3941   5.877   4.572   0.893 -0.4238  0.1488  0.1825
 1171TIP3    H1 3942   5.948   4.621   0.934 -0.2555  0.0976 -0.0463
 1171TIP3    H2 3943   5.868   4.493   0.946 -0.9928  0.6313  0.8179
 1172TIP3   OH2 3944   4.054   3.687   3.078 -0.1302  0.6176 -0.0981
 1172TIP3    H1 3945   4.059   3.605   3.125 -0.7098 -0.0906 -1.2351
 1172TIP3    H2 3946   4.092   3.668   2.992  1.0717  1.9208  0.1153
 1173TIP3   OH2 3947   3.332   5.680   1.207 -0.7252  0.1775 -0.2390
 1173TIP3    H1 3948   3.346   5.587   1.189 -2.6970 -0.3911  1.0776
 1173TIP3    H2 3949   3.420   5.714   1.226 -0.0719 -1.5273 -0.1572
 1174TIP3   OH2 3950   3.596   2.194   0.716 -0.0144  0.0045 -0.0812
 1174TIP3    H1 3951   3.537   2.119   0.725  0.5156 -0.4873 -0.7041
 1174TIP3    H2 3952   3.554   2.250   0.651  0.3776 -0.5180 -0.7889
 1175TIP3   OH2 3953   4.580   1.394   2.419  0.3544 -0.1492  0.4556
 1175TIP3    H1 3954   4.500   1.419   2.465 -0.1736  0.6981 -0.8846
 1175TIP3    H2 3955   4.610   1.315   2.463 -1.8711 -1.1675  0.2291
 1176TIP3   OH2 3956   4.852   2.526   3.422 -0.3942  0.4570  1.0477
 1176TIP3    H1 3957   4.799   2.565   3.352  0.4507 -1.7640 -0.8895
 1176TIP3    H2 3958   4.943   2.544   3.396 -0.0710 -0.5869  1.4195
 1177TIP3   OH2 3959   5.100   5.909   4.972 -0.5179 -0.2277 -0.2293
 1177TIP3    H1 3960   5.174   5.848   4.978 -0.1435  0.3722  1.8283
 1177TIP3    H2 3961   5.024   5.854   4.953  0.3315 -0.9381 -1.6091
 1178TIP3   OH2 3962   5.119   1.005   5.571 -0.4954  0.2347  0.2530
 1178TIP3    H1 3963   5.104   0.963   5.656 -0.6360 -0.7075 -0.2275
 1178TIP3    H2 3964   5.146   0.933   5.513 -0.8542  0.7841 -0.6109
 1179TIP3   OH2 3965   4.264   1.561   1.620 -0.8416  0.0081 -0.0388
 1179TIP3    H1 3966   4.277   1.516   1.704 -2.0593  0.6962  0.5163
 1179TIP3    H2 3967   4.180   1.528   1.588 -0.7432  0.3320 -0.6231
 1180TIP3   OH2 3968   3.522   3.263   1.769  0.3593  0.2833  0.1626
 1180TIP3    H1 3969   3.525   3.227   1.858  0.2074  0.2434  0.1512
 1180TIP3    H2 3970   3.440   3.313   1.766  0.4535  0.4325  0.1029
 1181TIP3   OH2 3971   5.544   3.543   5.026  0.5609  0.0435 -0.5213
 1181TIP3    H1 3972   5.493   3.467   5.054  0.2416  0.0351 -1.1063
 1181TIP3    H2 3973   5.624   3.506   4.988 -0.5065 -0.1275 -2.7160
 1182TIP3   OH2 3974   5.052   6.044   1.129 -0.3013 -0.1540  0.6766
 1182TIP3    H1 3975   4.970   6.062   1.084 -1.9339 -2.3084  2.6424
 1182TIP3    H2 3976   5.052   6.105   1.203  0.2875  0.4326  0.1935
 1183TIP3   OH2 3977   4.789   2.818   0.786 -0.0698  0.4545 -0.0775
 1183TIP3    H1 3978   4.807   2.860   0.701  0.0259  0.0489 -0.2602
 1183TIP3    H2 3979   4.875   2.789   0.817 -0.0346  1.0912  0.4179
 1184TIP3   OH2 3980   4.386   5.525   6.084  0.3309 -0.1920 -0.2985
 1184TIP3    H1 3981   4.329   5.553   6.013 -1.0237  2.9640  1.9494
 1184TIP3    H2 3982   4.469   5.569   6.068 -0.4256  1.6965  0.8065
 1185TIP3   OH2 3983   5.670   2.927   1.289 -0.6868 -0.2980 -0.1013
 1185TIP3    H1 3984   5.594   2.968   1.330 -0.9458 -1.5403  0.6804
 1185TIP3    H2 3985   5.655   2.936   1.195 -0.6465  1.5512  0.0496
 1186TIP3   OH2 3986   3.828   0.860   3.078  0.8728 -0.3797  0.9744
 1186TIP3    H1 3987   3.897   0.797   3.059  1.2135  0.1872  0.3316
 1186TIP3    H2 3988   3.864   0.944   3.052 -0.0466 -0.0714  0.6807
 1187TIP3   OH2 3989   5.438   1.741   1.048 -0.0389 -0.5560 -0.1260
 1187TIP3    H1 3990   5.530   1.735   1.073  0.0403  0.2053 -0.2037
 1187TIP3    H2 3991   5.407   1.651   1.043  0.6876 -0.8065 -0.0306
 1188TIP3   OH2 3992   3.203   4.522   4.608 -0.1054 -0.6541  0.4549
 1188TIP3    H1 3993   3.175   4.554   4.693 -2.1725  0.5702 -0.6574
 1188TIP3    H2 3994   3.138   4.457   4.583 -0.3043  0.0121 -0.8108
 1189TIP3   OH2 3995   4.518   1.775   2.510 -0.3274 -0.7471 -0.1712
 1189TIP3    H1 3996   4.541   1.861   2.476 -2.0855 -0.4173 -0.5656
 1189TIP3    H2 3997   4.591   1.751   2.568  0.4688  0.7134 -0.5692
 1190TIP3   OH2 3998   4.038   0.997   3.325  1.0012 -0.0365 -0.0136
 1190TIP3    H1 3999   4.085   0.935   3.270  0.7335  0.0404 -0.3263
 1190TIP3    H2 4000   4.049   1.081   3.281 -0.0182 -0.1273 -0.4657
 1191TIP3   OH2 4001   4.819   3.066   2.621 -0.6506  0.5286  0.0690
 1191TIP3    H1 4002   4.822   2.986   2.569 -2.1806  0.2647  0.3654
 1191TIP3    H2 4003   4.894   3.058   2.681 -0.2453 -0.2324 -0.5302
 1192TIP3   OH2 4004   4.197   1.535   5.875 -0.1788  0.2506 -0.7861
 1192TIP3    H1 4005   4.184   1.453   5.921  0.9995  1.3329  1.5320
 1192TIP3    H2 4006   4.112   1.553   5.834 -0.5240 -1.9429 -1.0688
 1193TIP3   OH2 4007   3.671   4.758   0.568 -0.0380 -0.4268  0.3412
 1193TIP3    H1 4008   3.641   4.678   0.526  0.5656 -0.3947 -0.1533
 1193TIP3    H2 4009   3.592   4.796   0.607 -0.2880 -1.3659  0.7591
 1194TIP3   OH2 4010   6.000   4.836   1.644 -0.3285 -0.5804 -0.2474
 1194TIP3    H1 4011   5.956   4.751   1.638 -0.4206 -0.5831  0.4656
 1194TIP3    H2 4012   5.945   4.887   1.704 -1.0183  0.4402 -1.7187
 1195TIP3   OH2 4013   4.659   2.696   2.568  0.4548 -0.6330  0.6130
 1195TIP3    H1 4014   4.715   2.705   2.646  1.8686 -1.3024 -0.2972
 1195TIP3    H2 4015   4.720   2.675   2.497 -0.8971 -0.7516 -0.5416
 1196TIP3   OH2 4016   5.230   0.516   5.752  0.3675  0.1965 -0.6488
 1196TIP3    H1 4017   5.251   0.433   5.795  0.1640  1.1109  1.2473
 1196TIP3    H2 4018   5.246   0.583   5.818  0.7816  1.7157 -2.2332
 1197TIP3   OH2 4019   5.806   0.471   1.452 -0.1605  0.2072  0.2018
 1197TIP3    H1 4020   5.829   0.564   1.455  1.4431 -0.1425 -0.2622
 1197TIP3    H2 4021   5.750   0.462   1.375 -0.0421  0.7457  0.0525
 1198TIP3   OH2 4022   5.302   1.300   0.490 -0.0399  0.1593 -0.2944
 1198TIP3    H1 4023   5.260   1.386   0.491  0.9822  0.6605  0.8714
 1198TIP3    H2 4024   5.384   1.313   0.537 -0.0172 -1.5338  0.1618
 1199TIP3   OH2 4025   3.597   2.229   1.679  0.7994  0.4037 -0.0688
 1199TIP3    H1 4026   3.638   2.310   1.648  1.0919 -0.1505 -1.1907
 1199TIP3    H2 4027   3.669   2.166   1.682  0.1781 -0.3899 -1.3651
 1200TIP3   OH2 4028   4.733   2.720   1.514 -0.0799  0.0708 -0.0644
 1200TIP3    H1 4029   4.794   2.650   1.538 -0.2056  0.3044  0.9513
 1200TIP3    H2 4030   4.651   2.696   1.556 -0.6309 -0.1126 -1.2318
 1201TIP3   OH2 4031   5.224   5.246   3.902  0.0211  0.2929  0.3660
 1201TIP3    H1 4032   5.175   5.260   3.983  0.5354 -2.2118  1.1755
 1201TIP3    H2 4033   5.177   5.176   3.857  0.3495  0.9317 -1.0156
 1202TIP3   OH2 4034   3.674   2.999   0.457  0.2729 -0.8623 -0.5785
 1202TIP3    H1 4035   3.612   2.932   0.486 -0.5515 -1.4928 -3.6679
 1202TIP3    H2 4036   3.620   3.076   0.440  0.5833 -0.8352 -1.4648
 1203TIP3   OH2 4037   3.146   1.930   0.460 -0.2973  0.2192  0.1499
 1203TIP3    H1 4038   3.189   1.844   0.459  0.9296  0.8032  1.2630
 1203TIP3    H2 4039   3.216   1.992   0.440 -1.2564  0.9451 -1.0500
 1204TIP3   OH2 4040   4.522   3.467   0.000  0.1616 -0.2320  0.5038
 1204TIP3    H1 4041   4.540   3.557   0.027 -0.1397 -0.1592  0.4607
 1204TIP3    H2 4042   4.432   3.451   0.029 -0.2787 -0.0541 -0.7370
 1205TIP3   OH2 4043   3.270   1.308   0.326  0.6176  0.1648  0.5552
 1205TIP3    H1 4044   3.338   1.274   0.385  1.0367 -0.5830 -0.3475
 1205TIP3    H2 4045   3.318   1.356   0.259  0.2453 -0.2082  0.0174
 1206TIP3   OH2 4046   4.948   0.741   1.451 -0.1411  0.4843  0.3979
 1206TIP3    H1 4047   5.033   0.722   1.489 -1.2550 -0.7801  2.3409
 1206TIP3    H2 4048   4.955   0.712   1.360  1.1965 -0.4792  0.8061
 1207TIP3   OH2 4049   4.800   2.641   4.527  0.7556  0.5014  0.2575
 1207TIP3    H1 4050   4.820   2.686   4.609  0.3466  1.9290 -0.4118
 1207TIP3    H2 4051   4.828   2.551   4.542  3.0041  1.3023  1.0881
 1208TIP3   OH2 4052   6.041   5.582   5.539  0.3884  0.2646 -0.1017
 1208TIP3    H1 4053   6.027   5.512   5.603  0.8512 -0.1546 -0.4582
 1208TIP3    H2 4054   6.132   5.571   5.511 -0.5303 -1.1488 -2.7232
 1209TIP3   OH2 4055   0.053   3.650   0.101  0.0346 -0.2126  0.5552
 1209TIP3    H1 4056   0.095   3.693   0.176  1.0453  1.9842 -1.2172
 1209TIP3    H2 4057   0.124   3.601   0.059  0.5209  2.0086 -1.3681
 1210TIP3   OH2 4058   4.974   1.738   2.787 -0.6319  0.2398  0.1212
 1210TIP3    H1 4059   4.925   1.664   2.821 -0.3616 -1.1504 -2.4581
 1210TIP3    H2 4060   5.064   1.722   2.815 -0.6631 -0.1367  0.0060
 1211TIP3   OH2 4061   0.416   2.606   5.247 -0.1204  0.2230 -0.2144
 1211TIP3    H1 4062   0.403   2.689   5.294  0.1431  1.0810 -1.6354
 1211TIP3    H2 4063   0.416   2.540   5.316 -1.1558  1.3117  0.8705
 1212TIP3   OH2 4064   0.585   2.177   0.682 -0.7453 -0.1772  0.4105
 1212TIP3    H1 4065   0.655   2.117   0.656 -0.7395 -0.4118  0.9671
 1212TIP3    H2 4066   0.617   2.219   0.761  0.0257  1.9197 -0.9961
 1213TIP3   OH2 4067   4.256   1.924   1.689 -0.0586  0.0105  0.4935
 1213TIP3    H1 4068   4.198   1.852   1.716  1.7676 -0.6952  2.6794
 1213TIP3    H2 4069   4.207   2.003   1.711 -1.9529 -0.5127 -1.6444
 1214TIP3   OH2 4070   3.290   3.407   1.763  0.2629  0.1534  0.2575
 1214TIP3    H1 4071   3.305   3.501   1.773  0.2783  0.0263  1.4950
 1214TIP3    H2 4072   3.197   3.395   1.783  0.6557 -0.3291  1.8407
 1215TIP3   OH2 4073   4.117   2.752   0.502  0.1177  0.0924 -0.2686
 1215TIP3    H1 4074   4.169   2.759   0.422 -0.7357 -0.5993 -0.8959
 1215TIP3    H2 4075   4.028   2.774   0.475 -0.1827 -0.1712  0.4891
 1216TIP3   OH2 4076   3.299   3.741   0.091  0.7345 -0.4087 -0.2470
 1216TIP3    H1 4077   3.265   3.683   0.022 -0.9678 -1.4209  1.3934
 1216TIP3    H2 4078   3.369   3.691   0.132 -0.7495 -1.3375  1.1829
 1217TIP3   OH2 4079   5.072   3.259   0.750 -0.2746  0.3152 -0.4969
 1217TIP3    H1 4080   5.099   3.179   0.796 -0.2628  0.1842 -0.7321
 1217TIP3    H2 4081   4.988   3.281   0.791 -0.7080 -0.3143 -1.0300
 1218TIP3   OH2 4082   4.586   3.926   1.241  1.2817  0.0673  0.2154
 1218TIP3    H1 4083   4.680   3.922   1.259  1.0062  1.1018  1.9380
 1218TIP3    H2 4084   4.551   3.843   1.275  1.3123  0.4504  1.1941
 1219TIP3   OH2 4085   4.134   6.058   0.970  0.5609 -0.2524  0.2724
 1219TIP3    H1 4086   4.047   6.078   0.938 -0.2018 -1.6804  1.3572
 1219TIP3    H2 4087   4.142   5.963   0.962  2.4967 -0.0219 -0.9735
 1220TIP3   OH2 4088   4.357   4.474   1.474  0.6558  0.7359  0.3561
 1220TIP3    H1 4089   4.352   4.537   1.545 -2.1572  0.1461  0.7473
 1220TIP3    H2 4090   4.292   4.504   1.410 -0.9504 -1.8404  0.6850
 1221TIP3   OH2 4091   5.473   4.987   3.252 -0.1004 -0.0701 -0.1746
 1221TIP3    H1 4092   5.517   5.065   3.219  1.5704 -0.6124  0.7426
 1221TIP3    H2 4093   5.420   5.019   3.325  1.6926  0.0096  1.1322
 1222TIP3   OH2 4094   3.108   4.012   3.544  0.7969 -0.0582  0.1771
 1222TIP3    H1 4095   3.158   3.948   3.494  0.0891  0.1874 -0.8542
 1222TIP3    H2 4096   3.173   4.078   3.569  1.0286  0.1502 -0.9752
 1223TIP3   OH2 4097   4.300   3.418   5.772  0.0692  0.0785  0.2434
 1223TIP3    H1 4098   4.285   3.423   5.678 -0.4208 -2.5290  0.1496
 1223TIP3    H2 4099   4.394   3.402   5.781 -0.2055 -1.6575  0.1058
 1224TIP3   OH2 4100   3.854   4.781   1.355 -0.0747  0.6469 -0.6990
 1224TIP3    H1 4101   3.900   4.843   1.411 -2.3855  2.3106 -0.5539
 1224TIP3    H2 4102   3.896   4.696   1.372  0.6637  1.5036  1.9365
 1225TIP3   OH2 4103   5.574   2.027   3.417 -0.5763  0.6974 -0.4256
 1225TIP3    H1 4104   5.590   1.947   3.369  0.5428  0.8797 -0.3803
 1225TIP3    H2 4105   5.648   2.084   3.394 -0.6578  1.2181  0.5607
 1226TIP3   OH2 4106   3.688   2.049   1.936 -0.5607  0.1349  0.0843
 1226TIP3    H1 4107   3.743   2.074   2.011 -1.6465 -1.0802  1.3128
 1226TIP3    H2 4108   3.747   2.054   1.861  1.2375 -1.1207  1.3585
 1227TIP3   OH2 4109   4.253   1.868   0.630 -0.3305  0.2111  0.1936
 1227TIP3    H1 4110   4.267   1.806   0.558  0.4783  0.0512  0.4781
 1227TIP3    H2 4111   4.159   1.866   0.646 -0.3215 -0.8875  0.1550
 1228TIP3   OH2 4112   6.017   2.448   0.165  0.1464  0.4907  0.1395
 1228TIP3    H1 4113   5.951   2.516   0.153 -1.7270 -0.9547  1.6613
 1228TIP3    H2 4114   5.992   2.379   0.104 -0.1365 -0.3270  1.1654
 1229TIP3   OH2 4115   2.816   1.540   0.387  0.5078  0.5297  0.0096
 1229TIP3    H1 4116   2.783   1.628   0.368  0.6572  0.7611  0.8227
 1229TIP3    H2 4117   2.848   1.545   0.477 -1.2807 -0.8968  0.7512
 1230TIP3   OH2 4118   4.552   1.056   6.093 -0.2518  0.1468 -0.5645
 1230TIP3    H1 4119   4.603   1.135   6.077  0.1770 -0.0136  0.0088
 1230TIP3    H2 4120   4.608   1.002   6.148 -1.4344  0.3920  0.9020
 1231TIP3   OH2 4121   5.287   1.495   2.191 -0.3270 -0.2951  0.1387
 1231TIP3    H1 4122   5.260   1.527   2.277 -0.8912  1.8152 -0.8041
 1231TIP3    H2 4123   5.305   1.574   2.140 -2.2869 -1.4290 -2.4178
 1232TIP3   OH2 4124   4.822   6.007   1.926 -0.0575  0.1583  0.2822
 1232TIP3    H1 4125   4.890   6.022   1.991  0.0126  0.5123  0.1259
 1232TIP3    H2 4126   4.859   6.038   1.843 -0.6584  0.9796  0.3158
 1233TIP3   OH2 4127   4.804   2.259   5.800  0.1700 -0.0597 -0.0361
 1233TIP3    H1 4128   4.733   2.257   5.736  1.6388  2.7983 -1.8560
 1233TIP3    H2 4129   4.772   2.318   5.869 -0.2421 -0.8288  0.4378
 1234TIP3   OH2 4130   3.931   4.532   1.387  0.1706 -0.3452 -0.3852
 1234TIP3    H1 4131   3.939   4.459   1.449 -1.5174 -1.3221 -1.2731
 1234TIP3    H2 4132   4.021   4.551   1.361  0.5862 -2.9781 -1.0804
 1235TIP3   OH2 4133   3.481   1.774   0.781  0.2764 -0.3818 -0.1397
 1235TIP3    H1 4134   3.542   1.806   0.847  0.5130  0.8194 -0.9123
 1235TIP3    H2 4135   3.434   1.703   0.823 -0.7205  1.4217  1.8902
 1236TIP3   OH2 4136   5.959   3.736   1.790  0.1411  0.4816  0.1622
 1236TIP3    H1 4137   5.923   3.798   1.854  0.6304 -1.2948  2.2252
 1236TIP3    H2 4138   5.952   3.781   1.706 -3.1460  1.8019  1.0406
 1237TIP3   OH2 4139   0.256   3.309   1.077  0.3492 -0.0824  0.5957
 1237TIP3    H1 4140   0.305   3.378   1.033 -0.1953 -0.3996 -0.5188
 1237TIP3    H2 4141   0.304   3.228   1.056 -0.1705 -0.2899  0.1955
 1238TIP3   OH2 4142   1.002   4.916   5.941  0.1703  0.4714 -0.1772
 1238TIP3    H1 4143   0.983   4.844   6.001 -2.7418  1.0068 -0.3741
 1238TIP3    H2 4144   1.064   4.879   5.878  0.4158 -1.2068  1.0100
 1239TIP3   OH2 4145   5.168   5.055   4.554  0.7021 -0.2139 -0.1045
 1239TIP3    H1 4146   5.104   5.076   4.485 -1.0262  0.0325  1.5161
 1239TIP3    H2 4147   5.211   5.138   4.573  0.1263  0.0402  0.1199
 1240TIP3   OH2 4148   5.367   4.665   1.960 -0.3157 -0.4262 -0.2812
 1240TIP3    H1 4149   5.317   4.649   2.040 -0.7560  0.8837 -0.2950
 1240TIP3    H2 4150   5.319   4.617   1.892 -2.3664  1.9355 -0.5574
 1241TIP3   OH2 4151   2.043   2.721   2.040  0.0915  0.5487 -0.1843
 1241TIP3    H1 4152   2.106   2.714   1.968 -0.8621  0.4935 -1.0325
 1241TIP3    H2 4153   2.071   2.656   2.104  2.0876  1.9354  0.3827
 1242TIP3   OH2 4154   3.732   2.745   1.475 -0.3582  0.0449  0.3134
 1242TIP3    H1 4155   3.660   2.735   1.413 -0.1952  1.8415 -0.1889
 1242TIP3    H2 4156   3.783   2.819   1.441 -0.0449  0.8169  2.3785
 1243TIP3   OH2 4157   3.357   3.410   1.421 -0.6868  0.0191  0.4726
 1243TIP3    H1 4158   3.269   3.375   1.429 -1.2940  1.3549 -0.2105
 1243TIP3    H2 4159   3.371   3.419   1.326  0.2471 -0.3568  0.5693
 1244TIP3   OH2 4160   3.263   3.563   2.784 -0.6518 -0.4891 -0.0388
 1244TIP3    H1 4161   3.206   3.510   2.839 -0.7657  0.3385  0.6435
 1244TIP3    H2 4162   3.202   3.615   2.730 -0.5439 -0.4349 -0.1082
 1245TIP3   OH2 4163   3.456   0.253   5.715  0.6642  0.1012 -0.0939
 1245TIP3    H1 4164   3.547   0.282   5.703  0.4221  0.9523  0.0612
 1245TIP3    H2 4165   3.460   0.158   5.711  1.7484  0.0871  1.0906
 1246TIP3   OH2 4166   5.342   2.534   2.852 -0.5015  0.4949 -0.3570
 1246TIP3    H1 4167   5.381   2.621   2.857  0.8888 -0.0523 -1.5254
 1246TIP3    H2 4168   5.405   2.477   2.895 -0.7012 -0.1674 -0.9311
 1247TIP3   OH2 4169   0.228   4.300   4.603  0.8054  0.0440  0.1933
 1247TIP3    H1 4170   0.140   4.323   4.574  0.5592 -2.1807 -0.9325
 1247TIP3    H2 4171   0.279   4.295   4.522  2.1530  1.9364  0.8821
 1248TIP3   OH2 4172   3.865   2.194   1.311  0.0184  0.3618  0.2094
 1248TIP3    H1 4173   3.847   2.117   1.258  0.7196 -0.2650  0.8661
 1248TIP3    H2 4174   3.800   2.259   1.282 -1.7594 -1.0572  0.9213
 1249TIP3   OH2 4175   3.991   0.501   5.974  0.2663 -0.0709  0.2362
 1249TIP3    H1 4176   4.011   0.454   5.893  1.6876 -0.6365  0.8964
 1249TIP3    H2 4177   3.973   0.432   6.038 -1.3137  0.3779  0.3135
 1250TIP3   OH2 4178   4.584   1.584   0.780 -0.5545 -0.0071 -0.6729
 1250TIP3    H1 4179   4.601   1.492   0.762  1.6772  0.3150 -0.3199
 1250TIP3    H2 4180   4.500   1.584   0.826  0.4218 -2.0851  1.2015
 1251TIP3   OH2 4181   4.684   2.984   1.457  0.3407 -0.1787  0.2194
 1251TIP3    H1 4182   4.701   3.031   1.539  1.7762 -0.7452  0.2746
 1251TIP3    H2 4183   4.722   2.897   1.472  0.6063 -0.2796 -1.0408
 1252TIP3   OH2 4184   5.267   3.829   5.626  0.6664  0.1857 -0.5171
 1252TIP3    H1 4185   5.282   3.836   5.531  0.9288  2.0602 -0.3648
 1252TIP3    H2 4186   5.195   3.766   5.634 -0.8471  1.6586 -2.1141
 1253TIP3   OH2 4187   5.772   3.513   2.027  0.5036 -0.3717 -0.1394
 1253TIP3    H1 4188   5.808   3.601   2.037 -3.3482  1.1545  0.9977
 1253TIP3    H2 4189   5.743   3.509   1.936 -1.7104  0.5280  0.5018
 1254TIP3   OH2 4190   4.007   5.833   0.342  0.0104  0.0320 -0.4115
 1254TIP3    H1 4191   3.957   5.778   0.401 -0.1456  0.8786  0.2524
 1254TIP3    H2 4192   4.037   5.774   0.273 -0.7727 -0.7317 -0.0986
 1255TIP3   OH2 4193   5.039   4.951   1.665  0.1195  0.1772 -0.1605
 1255TIP3    H1 4194   5.108   4.885   1.653 -1.0711 -1.2331  0.6451
 1255TIP3    H2 4195   5.073   5.009   1.733  1.1957  0.4372 -0.9033
 1256TIP3   OH2 4196   3.956   1.826   0.588 -0.3460 -0.6131 -0.8261
 1256TIP3    H1 4197   3.959   1.900   0.527  0.3235 -1.6555 -2.0851
 1256TIP3    H2 4198   3.928   1.752   0.534  2.0933 -1.9619 -0.3104
 1257TIP3   OH2 4199   5.480   3.094   2.181  0.2049  0.1833 -0.5243
 1257TIP3    H1 4200   5.506   3.155   2.113 -1.3689 -0.7703 -2.0437
 1257TIP3    H2 4201   5.387   3.111   2.195 -0.2075 -1.6747 -0.7989
 1258TIP3   OH2 4202   4.283   2.509   0.885  0.1589  0.1962  0.1553
 1258TIP3    H1 4203   4.267   2.566   0.809 -0.9400  2.5931  2.1040
 1258TIP3    H2 4204   4.203   2.457   0.892  0.4278 -0.3252 -0.5562
 1259TIP3   OH2 4205   2.476   5.883   2.861 -0.5477  0.2739  0.2449
 1259TIP3    H1 4206   2.471   5.977   2.840  0.3089  0.2105 -0.2677
 1259TIP3    H2 4207   2.558   5.854   2.820 -1.1679 -0.8529 -0.2040
 1260TIP3   OH2 4208   4.102   3.996   1.543  0.6854 -0.1487  0.6051
 1260TIP3    H1 4209   4.071   3.906   1.530 -0.5118  0.5835 -1.9403
 1260TIP3    H2 4210   4.077   4.042   1.463  2.0040  2.2752  1.5220
 1261TIP3   OH2 4211   3.614   1.777   1.028 -0.8716  0.7759  0.5258
 1261TIP3    H1 4212   3.587   1.685   1.029 -0.6898  0.6568 -1.8925
 1261TIP3    H2 4213   3.709   1.774   1.039 -0.6226  0.5291 -1.5537
 1262TIP3   OH2 4214   6.077   1.580   1.211 -0.3257  0.3977 -0.2822
 1262TIP3    H1 4215   6.008   1.515   1.219  0.3451 -0.4493 -1.1470
 1262TIP3    H2 4216   6.109   1.594   1.300  0.1323 -1.1521 -0.1938
 1263TIP3   OH2 4217   4.723   0.531   2.548  0.2581  0.4177 -0.0881
 1263TIP3    H1 4218   4.815   0.555   2.564  0.5876  0.3358 -1.7722
 1263TIP3    H2 4219   4.727   0.463   2.482 -0.9616 -0.7329  0.9922
 1264TIP3   OH2 4220   1.503   0.886   3.118 -0.0171  0.3177  0.4677
 1264TIP3    H1 4221   1.471   0.835   3.044  4.0322  1.0812 -1.9314
 1264TIP3    H2 4222   1.446   0.963   3.121 -1.6543 -0.8195 -0.3224
 1265TIP3   OH2 4223   3.836   2.127   0.848  0.7977  0.7616  0.1266
 1265TIP3    H1 4224   3.902   2.167   0.790  1.0287  0.5109  0.2144
 1265TIP3    H2 4225   3.752   2.145   0.805  0.9859  0.3684 -0.4088
 1266TIP3   OH2 4226   5.234   3.709   2.142 -0.0342 -0.8181  0.1175
 1266TIP3    H1 4227   5.141   3.699   2.124 -0.4134 -1.3720  2.1828
 1266TIP3    H2 4228   5.243   3.797   2.178  0.2580 -0.7179 -0.1951
 1267TIP3   OH2 4229   4.012   1.220   2.705  0.5049 -0.2398 -0.2281
 1267TIP3    H1 4230   4.049   1.251   2.788  1.4457  0.4267 -0.8786
 1267TIP3    H2 4231   3.994   1.300   2.656  1.7130 -0.6604 -1.3947
 1268TIP3   OH2 4232   4.655   5.355   1.118 -0.3416  0.2015 -0.2678
 1268TIP3    H1 4233   4.579   5.344   1.176 -0.1096 -0.3715 -0.0675
 1268TIP3    H2 4234   4.720   5.294   1.152  0.5868  1.4276  0.1835
 1269TIP3   OH2 4235   4.697   2.027   4.604  0.0950 -0.6744 -0.5659
 1269TIP3    H1 4236   4.662   2.110   4.636 -0.4992 -1.2860  0.3939
 1269TIP3    H2 4237   4.729   1.983   4.682 -1.1682 -2.0936 -0.8237
 1270TIP3   OH2 4238   5.224   1.175   2.787 -0.0213  0.4819  0.2563
 1270TIP3    H1 4239   5.151   1.165   2.848 -0.9577  0.9296 -0.7506
 1270TIP3    H2 4240   5.300   1.193   2.842 -1.0548  1.9862  1.2228
 1271TIP3   OH2 4241   3.289   3.837   1.611 -0.0421 -0.2418 -0.2581
 1271TIP3    H1 4242   3.344   3.760   1.594  2.2505  1.3211 -0.1507
 1271TIP3    H2 4243   3.268   3.831   1.704 -0.2027 -0.9420 -0.3350
 1272TIP3   OH2 4244   4.188   0.857   1.205  0.2524 -0.3084  0.1673
 1272TIP3    H1 4245   4.119   0.873   1.270 -0.2597  0.7311 -0.6147
 1272TIP3    H2 4246   4.202   0.762   1.208 -0.8417 -0.4637  0.7145
 1273TIP3   OH2 4247   5.390   4.060   0.367  0.2357 -1.1409  0.3348
 1273TIP3    H1 4248   5.423   4.050   0.456  1.6112 -1.6548 -0.2124
 1273TIP3    H2 4249   5.432   3.988   0.318  3.5526  2.1121 -1.8491
 1274TIP3   OH2 4250   4.916   4.709   0.400  0.0031 -0.1712  0.1114
 1274TIP3    H1 4251   5.009   4.711   0.424  0.0993  2.3069 -0.3664
 1274TIP3    H2 4252   4.917   4.714   0.304 -0.6145 -1.7252  0.0009
 1275TIP3   OH2 4253   2.274   4.201   2.020  0.6067 -0.0846 -0.4559
 1275TIP3    H1 4254   2.344   4.265   2.006  0.2934  0.2140 -0.6755
 1275TIP3    H2 4255   2.231   4.195   1.935  1.7995 -1.9807 -0.9743
 1276TIP3   OH2 4256   4.088   2.480   1.507 -0.2356  0.7336 -0.2033
 1276TIP3    H1 4257   4.009   2.468   1.559 -2.0796  0.7562 -2.9015
 1276TIP3    H2 4258   4.082   2.413   1.439  1.9402  0.9260 -0.6145
 1277TIP3   OH2 4259   0.617   3.514   1.561  0.2851 -0.5821  0.4635
 1277TIP3    H1 4260   0.695   3.473   1.597 -0.9698 -2.9278  0.5842
 1277TIP3    H2 4261   0.544   3.464   1.597 -1.1745 -0.0080 -1.5803
 1278TIP3   OH2 4262   4.898   2.109   1.145  0.2718  0.0207  0.1024
 1278TIP3    H1 4263   4.847   2.031   1.124 -0.1606  0.7295 -1.5629
 1278TIP3    H2 4264   4.854   2.147   1.221  0.2962 -1.1702  0.7220
 1279TIP3   OH2 4265   0.482   2.809   1.104 -0.3574  0.2537 -0.1947
 1279TIP3    H1 4266   0.534   2.863   1.164 -1.7867  0.7007  0.6876
 1279TIP3    H2 4267   0.442   2.742   1.160  1.6042 -1.8997 -1.3342
 1280TIP3   OH2 4268   2.518   1.341   1.950  0.5254  0.9500  0.3286
 1280TIP3    H1 4269   2.460   1.314   2.021  1.0684 -0.0269  0.4075
 1280TIP3    H2 4270   2.521   1.266   1.891  2.4807  0.5990  0.8267
 1281TIP3   OH2 4271   0.042   2.926   1.718  0.3314 -0.3013 -0.0168
 1281TIP3    H1 4272   0.019   2.921   1.811 -1.8586 -0.2760 -0.5409
 1281TIP3    H2 4273  -0.042   2.922   1.672  1.4555 -1.3053 -2.0392
 1282TIP3   OH2 4274   5.873   3.986   6.054 -0.2580 -0.2682  0.5813
 1282TIP3    H1 4275   5.895   3.909   6.000 -1.2601 -1.0234  1.2302
 1282TIP3    H2 4276   5.941   4.050   6.033  1.5509 -1.9188  1.2463
 1283TIP3   OH2 4277   3.369   2.884   0.126  0.0567  0.2556 -0.3297
 1283TIP3    H1 4278   3.336   2.974   0.127 -0.2068  0.1524  2.3801
 1283TIP3    H2 4279   3.457   2.891   0.088 -0.1141  1.5897 -0.4882
 1284TIP3   OH2 4280   4.609   3.638   5.593 -0.3072  0.0089  0.2268
 1284TIP3    H1 4281   4.587   3.589   5.672 -1.9005  1.2271  0.5762
 1284TIP3    H2 4282   4.525   3.669   5.560  0.4446  0.3992 -1.3590
 1285TIP3   OH2 4283   2.555   3.225   0.273  0.2372  0.6336 -0.8022
 1285TIP3    H1 4284   2.629   3.206   0.216  0.5422  1.6148 -0.7283
 1285TIP3    H2 4285   2.592   3.274   0.346 -0.2761  0.0352 -0.1311
 1286TIP3   OH2 4286   5.618   2.602   2.060  0.1758 -0.2657  0.4883
 1286TIP3    H1 4287   5.662   2.538   2.116  0.4252 -2.1604 -1.7806
 1286TIP3    H2 4288   5.689   2.641   2.009 -0.3688 -0.7580 -0.6500
 1287TIP3   OH2 4289   5.368   2.544   2.333  0.4819 -0.4321  0.5256
 1287TIP3    H1 4290   5.452   2.541   2.379  0.7359 -0.1944  0.0845
 1287TIP3    H2 4291   5.382   2.492   2.255  0.8768  1.3148 -0.5987
 1288TIP3   OH2 4292   3.652   3.258   0.383 -0.5400 -0.2038 -0.0059
 1288TIP3    H1 4293   3.726   3.278   0.326 -0.1292 -1.3183  0.1336
 1288TIP3    H2 4294   3.575   3.281   0.331 -0.1654 -1.1528 -0.9986
 1289TIP3   OH2 4295   5.455   2.621   5.865  0.7657 -0.0417  0.1556
 1289TIP3    H1 4296   5.493   2.690   5.812  0.0207  0.1710 -0.1108
 1289TIP3    H2 4297   5.360   2.638   5.862  0.5328 -1.3983 -0.3833
 1290TIP3   OH2 4298   5.902   3.541   5.011 -0.1416 -0.1353  0.2437
 1290TIP3    H1 4299   5.961   3.578   4.945 -0.1059 -0.1661  0.2584
 1290TIP3    H2 4300   5.910   3.600   5.086  0.7509 -0.7906  0.6678
 1291TIP3   OH2 4301   5.001   1.000   1.218  0.9114  0.0001 -0.2553
 1291TIP3    H1 4302   5.030   1.030   1.132  1.0973 -0.9951 -0.5477
 1291TIP3    H2 4303   5.066   0.934   1.243  0.3164 -0.4051  0.2189
 1292TIP3   OH2 4304   3.215   3.471   0.484 -0.3571  0.4686  0.2789
 1292TIP3    H1 4305   3.299   3.448   0.445 -0.3079  1.0854  0.0234
 1292TIP3    H2 4306   3.221   3.564   0.503 -0.5796  0.2968  1.2723
 1293TIP3   OH2 4307   5.529   0.225   2.222  0.0469  0.3862  0.5539
 1293TIP3    H1 4308   5.587   0.296   2.249  0.7276  0.1279 -0.2247
 1293TIP3    H2 4309   5.502   0.184   2.304  0.4596  0.9077  0.9525
 1294TIP3   OH2 4310   5.760   1.108   1.180  0.1444 -0.1723  0.6205
 1294TIP3    H1 4311   5.770   1.034   1.240 -1.6944 -0.3208  0.7915
 1294TIP3    H2 4312   5.778   1.072   1.093  0.6963 -0.4665  0.8539
 1295TIP3   OH2 4313   4.595   5.777   0.354  0.1122 -0.2348  0.1472
 1295TIP3    H1 4314   4.592   5.792   0.260  0.8029 -1.5272 -0.1007
 1295TIP3    H2 4315   4.631   5.858   0.391 -2.3312  1.1485 -0.4526
 1296TIP3   OH2 4316   5.025   1.190   2.297 -0.5454  0.1934  0.5187
 1296TIP3    H1 4317   5.053   1.186   2.389  0.1501  0.0852  0.3027
 1296TIP3    H2 4318   5.106   1.181   2.247 -0.9036  0.4304 -0.1071
 1297TIP3   OH2 4319   0.956   4.001   1.930 -0.1668 -0.2965  0.5310
 1297TIP3    H1 4320   1.041   3.957   1.919 -0.0251 -0.2242  1.3179
 1297TIP3    H2 4321   0.938   3.996   2.024 -1.6926 -1.5031  0.1881
 1298TIP3   OH2 4322   4.718   3.333   1.486  0.0822  0.2737  0.7270
 1298TIP3    H1 4323   4.782   3.262   1.493  0.8662  1.0029  0.9792
 1298TIP3    H2 4324   4.752   3.390   1.417 -0.9976 -0.0508 -0.0891
 1299TIP3   OH2 4325   3.695   4.062   1.500  0.2628 -0.1529 -0.2832
 1299TIP3    H1 4326   3.642   4.125   1.549  2.2170  1.8453 -0.6291
 1299TIP3    H2 4327   3.643   4.038   1.424 -0.0409  1.9762 -0.7560
 1300TIP3   OH2 4328   5.048   3.116   4.767 -0.0677  0.6981 -0.3980
 1300TIP3    H1 4329   5.132   3.093   4.728 -0.6189 -0.3269 -1.0074
 1300TIP3    H2 4330   5.059   3.207   4.796  0.7156  1.1351 -1.9859
 1301TIP3   OH2 4331   1.285   1.484   2.943 -0.3128  0.2454 -0.1900
 1301TIP3    H1 4332   1.313   1.576   2.949  0.3164  0.0737 -0.4133
 1301TIP3    H2 4333   1.216   1.476   3.009 -0.7548  1.0170 -0.5510
 1302TIP3   OH2 4334   3.028   2.820   1.308  0.0430 -0.2520  0.0863
 1302TIP3    H1 4335   3.046   2.796   1.399 -1.9647 -1.7407  0.0955
 1302TIP3    H2 4336   3.001   2.739   1.266  1.6851  0.2624 -2.0674
 1303TIP3   OH2 4337   3.293   3.680   1.881  0.5114  0.2123  0.0601
 1303TIP3    H1 4338   3.379   3.714   1.907  0.4389  0.0759  0.4806
 1303TIP3    H2 4339   3.242   3.679   1.961 -0.5907  2.3266 -0.6035
 1304TIP3   OH2 4340   5.475   1.984   1.892  0.1155  0.0753  0.0609
 1304TIP3    H1 4341   5.458   1.981   1.798  0.3990  0.3489  0.0013
 1304TIP3    H2 4342   5.546   1.921   1.906  1.2439  1.2757 -0.1612
 1305TIP3   OH2 4343   3.615   4.978   5.086 -0.0809 -0.2670  0.0790
 1305TIP3    H1 4344   3.642   4.974   5.178  1.9712  1.6459 -0.3953
 1305TIP3    H2 4345   3.557   5.054   5.082  3.5988  2.6335 -1.0336
 1306TIP3   OH2 4346   4.873   1.536   0.516  0.1808  0.6282 -0.0467
 1306TIP3    H1 4347   4.898   1.509   0.605  2.4729 -2.4718 -1.5267
 1306TIP3    H2 4348   4.888   1.631   0.515 -0.9268  0.9151  3.1507
 1307TIP3   OH2 4349   4.188   2.692   2.448  0.6295  0.1523  0.1160
 1307TIP3    H1 4350   4.256   2.657   2.506  1.4926 -0.2050 -1.0790
 1307TIP3    H2 4351   4.216   2.782   2.430  1.2600 -0.2650 -1.0572
 1308TIP3   OH2 4352   2.746   3.898   1.483  0.1474  0.1753 -0.8166
 1308TIP3    H1 4353   2.754   3.991   1.505  2.5378 -0.2034  0.0454
 1308TIP3    H2 4354   2.657   3.875   1.510  0.3697  1.6292  1.2649
 1309TIP3   OH2 4355   4.711   0.439   3.669 -0.0594 -0.0070  0.0988
 1309TIP3    H1 4356   4.702   0.427   3.574 -1.6465 -0.3094  0.2791
 1309TIP3    H2 4357   4.770   0.369   3.696 -0.1705 -0.3626 -0.5548
 1310TIP3   OH2 4358   0.784   2.044   3.057  0.4095 -0.8626  0.5726
 1310TIP3    H1 4359   0.825   2.125   3.089  1.0153 -0.8997 -0.0795
 1310TIP3    H2 4360   0.856   1.981   3.054  0.5899 -0.6113 -1.6902
 1311TIP3   OH2 4361   4.765   5.014   3.233 -0.2030  0.6458 -0.3600
 1311TIP3    H1 4362   4.858   5.032   3.224 -0.0065 -0.6800 -1.1459
 1311TIP3    H2 4363   4.760   4.947   3.302 -0.3840 -0.8061 -1.7548
 1312TIP3   OH2 4364   5.074   1.885   0.801  0.2965  0.0277  0.6858
 1312TIP3    H1 4365   5.023   1.805   0.815 -0.6058  0.4078 -0.3537
 1312TIP3    H2 4366   5.164   1.858   0.816 -0.0022 -1.1753  0.3896
 1313TIP3   OH2 4367   4.316   3.040   5.878 -0.4739 -0.8604 -0.4625
 1313TIP3    H1 4368   4.399   3.077   5.847 -0.6417  0.6933  0.9120
 1313TIP3    H2 4369   4.298   2.968   5.817  1.3351 -0.5346 -1.4152
 1314TIP3   OH2 4370   0.476   3.547   2.671  0.0513  0.2372 -0.1104
 1314TIP3    H1 4371   0.429   3.575   2.749 -1.1325  0.2374 -0.7997
 1314TIP3    H2 4372   0.552   3.500   2.703 -0.7839 -0.3470  1.0336
 1315TIP3   OH2 4373   5.166   0.509   1.422 -0.0648 -0.0731  0.0575
 1315TIP3    H1 4374   5.153   0.415   1.432 -0.0640 -0.1064 -0.2532
 1315TIP3    H2 4375   5.191   0.539   1.510  0.4640 -0.4507  0.0391
 1316TIP3   OH2 4376   5.118   0.019   0.282  0.3164  0.1597  0.1236
 1316TIP3    H1 4377   5.201  -0.027   0.283  1.2940  1.8955  1.8062
 1316TIP3    H2 4378   5.115   0.062   0.196  2.0705  1.6801  0.8059
 1317TIP3   OH2 4379   0.215   1.515   5.976  0.2310 -0.2264  0.0443
 1317TIP3    H1 4380   0.165   1.531   6.056  0.7886  0.0137  0.3451
 1317TIP3    H2 4381   0.305   1.537   5.998  0.4730 -0.6221 -0.5079
 1318TIP3   OH2 4382   4.614   2.354   2.018 -0.0531  0.3148 -0.3164
 1318TIP3    H1 4383   4.635   2.388   1.930 -1.4350  0.2364 -0.6854
 1318TIP3    H2 4384   4.591   2.263   2.003 -0.1459  0.2639  0.1640
 1319TIP3   OH2 4385   4.057   1.380   1.048 -0.1428  0.1066 -0.0242
 1319TIP3    H1 4386   4.075   1.291   1.076 -0.5682  0.2497  0.7032
 1319TIP3    H2 4387   4.105   1.435   1.109 -0.2894  0.3866 -0.1612
 1320TIP3   OH2 4388   5.597   5.839   1.919  0.9031  0.6478 -0.5381
 1320TIP3    H1 4389   5.643   5.879   1.993  0.1495 -0.8311  0.7606
 1320TIP3    H2 4390   5.602   5.745   1.936 -1.7805  0.4027 -0.8321
 1321TIP3   OH2 4391   0.860   2.318   3.272  0.2694  0.2218  0.1905
 1321TIP3    H1 4392   0.900   2.389   3.222  1.1793 -0.7963 -0.5410
 1321TIP3    H2 4393   0.766   2.337   3.270  0.4493  1.0759 -0.5129
 1322TIP3   OH2 4394   5.566   1.221   5.879 -0.0095  0.0082 -0.2783
 1322TIP3    H1 4395   5.650   1.267   5.883  0.0392  0.0137 -1.2482
 1322TIP3    H2 4396   5.590   1.128   5.887  0.0641  0.0243 -0.3129
 1323TIP3   OH2 4397   3.782   2.985   3.187  0.1008 -0.0640  0.1009
 1323TIP3    H1 4398   3.704   2.937   3.215 -0.4289 -0.6262 -2.1950
 1323TIP3    H2 4399   3.810   2.940   3.107  2.3284  0.6169  0.4528
 1324TIP3   OH2 4400   5.418   2.038   0.477  0.3977  0.1648  0.6265
 1324TIP3    H1 4401   5.357   2.111   0.491 -0.7556 -0.8681  1.1478
 1324TIP3    H2 4402   5.433   2.003   0.565  0.4146 -0.6441  0.3009
 1325TIP3   OH2 4403   3.624   5.729   0.239 -0.0966  0.4775 -0.2020
 1325TIP3    H1 4404   3.568   5.791   0.192 -0.0539  1.5672  1.1344
 1325TIP3    H2 4405   3.684   5.695   0.172 -1.4614  0.3264 -1.3662
 1326TIP3   OH2 4406   0.773   5.597   1.047  0.4480  0.0417  0.1892
 1326TIP3    H1 4407   0.822   5.516   1.030  0.8508 -0.0227  1.5757
 1326TIP3    H2 4408   0.695   5.590   0.992  0.8282 -0.9599 -0.2430
 1327TIP3   OH2 4409   5.372   3.793   1.890 -0.7072 -0.1287  0.0120
 1327TIP3    H1 4410   5.283   3.784   1.856 -0.4794 -1.5514 -0.2622
 1327TIP3    H2 4411   5.363   3.783   1.985 -0.9602  0.7245  0.0787
 1328TIP3   OH2 4412   4.076   1.973   3.089  0.1993 -0.1221  0.6063
 1328TIP3    H1 4413   4.017   1.907   3.053 -0.2226  1.3758 -1.6139
 1328TIP3    H2 4414   4.017   2.039   3.127  0.4830  0.4678  0.0372
 1329TIP3   OH2 4415   0.067   2.288   3.270 -0.0826 -0.1515  0.1481
 1329TIP3    H1 4416   0.158   2.260   3.266 -0.6791 -2.2560  0.8088
 1329TIP3    H2 4417   0.069   2.368   3.323  1.3610 -0.1907  0.1726
 1330TIP3   OH2 4418   5.352   3.765   4.084 -0.2735  0.5303 -0.2872
 1330TIP3    H1 4419   5.288   3.708   4.040 -1.3350  1.2986  0.2603
 1330TIP3    H2 4420   5.300   3.820   4.142  1.0183  0.2803  1.1285
 1331TIP3   OH2 4421   0.372   5.847   2.497  0.2405  0.0096  0.1083
 1331TIP3    H1 4422   0.313   5.798   2.439 -0.8690  0.7765  0.5651
 1331TIP3    H2 4423   0.411   5.780   2.553 -0.0616 -0.5329 -0.3277
 1332TIP3   OH2 4424   6.078   1.502   0.929 -0.3121  0.0618  0.2320
 1332TIP3    H1 4425   6.124   1.417   0.931 -1.8826 -0.7880  0.4706
 1332TIP3    H2 4426   6.113   1.550   1.003  1.1594 -0.0678 -0.3547
 1333TIP3   OH2 4427   0.801   3.503   4.055  0.5621 -0.9082  0.0479
 1333TIP3    H1 4428   0.716   3.524   4.018  1.5708  2.0239 -0.7216
 1333TIP3    H2 4429   0.820   3.414   4.025 -0.5053 -0.1396 -3.0022
 1334TIP3   OH2 4430   0.397   3.231   2.636 -0.0304 -0.0281 -0.0884
 1334TIP3    H1 4431   0.469   3.200   2.691 -0.5009  0.5338  0.8666
 1334TIP3    H2 4432   0.392   3.325   2.655  0.3160  0.3230 -1.6937
 1335TIP3   OH2 4433   4.090   3.721   1.770  0.0966  0.6082 -0.4203
 1335TIP3    H1 4434   4.025   3.748   1.835 -0.6086 -1.1986 -0.3389
 1335TIP3    H2 4435   4.166   3.695   1.821  0.6078  1.9687 -0.4759
 1336TIP3   OH2 4436   0.765   3.979   1.729  0.2729 -0.3530 -0.4172
 1336TIP3    H1 4437   0.770   3.906   1.667  1.9083  0.9646 -1.8905
 1336TIP3    H2 4438   0.848   3.975   1.776  1.5962  2.1816 -2.4238
 1337TIP3   OH2 4439   4.070   3.015   0.325 -0.1334  0.2610  0.2785
 1337TIP3    H1 4440   4.092   3.105   0.347 -1.9747  0.2511  2.3452
 1337TIP3    H2 4441   4.090   3.008   0.232  2.4515  2.0321  0.6426
 1338TIP3   OH2 4442   5.531   5.530   5.991  0.0442 -0.4679 -0.6943
 1338TIP3    H1 4443   5.563   5.485   6.070 -1.4982  0.3177  0.4111
 1338TIP3    H2 4444   5.601   5.591   5.968  0.1528 -0.0941  0.5889
 1339TIP3   OH2 4445   6.055   2.635   1.287 -0.0788  1.1771  0.5431
 1339TIP3    H1 4446   6.116   2.628   1.361 -0.8329  0.6334  1.1202
 1339TIP3    H2 4447   5.996   2.706   1.311 -1.5450 -0.2765  1.3842
 1340TIP3   OH2 4448   3.929   1.222   1.712  0.7830  0.2288 -0.3050
 1340TIP3    H1 4449   3.989   1.190   1.780  0.8570 -0.5157 -0.7065
 1340TIP3    H2 4450   3.980   1.289   1.665  1.2962 -0.3662 -0.6147
 1341TIP3   OH2 4451   5.203   2.832   2.060 -0.0806 -0.0474  0.8452
 1341TIP3    H1 4452   5.178   2.751   2.016  0.4518 -0.3577  1.1063
 1341TIP3    H2 4453   5.184   2.817   2.152 -2.9804  1.2933  0.5291
 1342TIP3   OH2 4454   5.798   2.551   2.754  0.2008 -0.1334 -0.3046
 1342TIP3    H1 4455   5.862   2.547   2.682 -0.8456 -0.2811 -1.2411
 1342TIP3    H2 4456   5.799   2.463   2.792 -0.1235 -0.4021 -0.9166
 1343TIP3   OH2 4457   4.811   1.854   3.154 -0.1853 -0.3261 -0.2417
 1343TIP3    H1 4458   4.787   1.908   3.229 -0.4956 -0.9525  0.1137
 1343TIP3    H2 4459   4.754   1.777   3.160 -0.4965 -0.2028 -1.3363
 1344TIP3   OH2 4460   5.284   4.081   2.109 -0.1679 -0.4674 -0.6005
 1344TIP3    H1 4461   5.361   4.087   2.053  0.1700 -0.9604 -0.2018
 1344TIP3    H2 4462   5.212   4.114   2.056  0.2351 -0.4773 -1.1511
 1345TIP3   OH2 4463   4.882   2.612   2.404 -0.6089 -0.1125  0.2429
 1345TIP3    H1 4464   4.825   2.560   2.347 -1.0467 -0.7338  1.2252
 1345TIP3    H2 4465   4.900   2.554   2.478 -1.4191  1.2627  1.5381
 1346TIP3   OH2 4466   4.991   1.954   0.551  0.3478 -0.0633  0.3971
 1346TIP3    H1 4467   5.061   1.930   0.612 -0.4135  1.0006  1.7287
 1346TIP3    H2 4468   4.962   2.040   0.581 -1.2434 -0.3130 -0.3867
 1347TIP3   OH2 4469   5.635   4.320   1.463  0.5249  0.0276  0.0322
 1347TIP3    H1 4470   5.716   4.274   1.440  0.5861  0.1578 -0.0126
 1347TIP3    H2 4471   5.575   4.300   1.392  1.2276  1.7456 -1.0934
 1348TIP3   OH2 4472   4.751   3.743   0.193 -0.1881  0.3615  0.4997
 1348TIP3    H1 4473   4.784   3.825   0.155  0.5455 -0.8951 -1.6980
 1348TIP3    H2 4474   4.664   3.733   0.155 -0.1397 -0.0271  0.4865
 1349TIP3   OH2 4475   2.922   0.878   0.025 -0.1783 -0.0195 -0.1078
 1349TIP3    H1 4476   3.003   0.843  -0.012  0.1583 -0.0426  0.6519
 1349TIP3    H2 4477   2.934   0.973   0.022 -0.9290  0.0412 -1.8017
 1350TIP3   OH2 4478   5.396   4.603   0.323 -0.1368  0.0761 -0.0344
 1350TIP3    H1 4479   5.453   4.674   0.294 -0.2521  0.1262 -0.1406
 1350TIP3    H2 4480   5.439   4.567   0.400 -0.6671  1.0172  0.7090
 1351TIP3   OH2 4481   0.484   3.133   1.107 -0.2895  0.0802  0.4211
 1351TIP3    H1 4482   0.572   3.117   1.074  0.1246  3.1985 -0.1268
 1351TIP3    H2 4483   0.488   3.220   1.146 -2.8681 -0.1764  1.4026
 1352TIP3   OH2 4484   0.500   3.724   1.780 -0.1545 -0.3107  0.1109
 1352TIP3    H1 4485   0.590   3.694   1.769 -0.3311 -1.0250  0.6287
 1352TIP3    H2 4486   0.490   3.793   1.714  0.1308 -1.6329 -1.3413
 1353TIP3   OH2 4487   1.463   1.308   1.350  0.5293  0.2669 -0.1193
 1353TIP3    H1 4488   1.539   1.365   1.361 -0.3128  1.0260  1.9895
 1353TIP3    H2 4489   1.493   1.222   1.379  0.5628  0.5921  0.8280
 1354TIP3   OH2 4490   4.954   3.362   2.595  0.1365 -0.2140 -0.4297
 1354TIP3    H1 4491   4.893   3.294   2.622  0.0986 -0.0948 -0.2135
 1354TIP3    H2 4492   4.908   3.444   2.612 -1.5575 -0.1593 -4.7448
 1355TIP3   OH2 4493   0.890   4.872   1.055  0.2113  0.1492  0.1769
 1355TIP3    H1 4494   0.814   4.924   1.028 -0.4451 -1.8104 -1.8950
 1355TIP3    H2 4495   0.907   4.900   1.145 -2.0219  1.7019  0.1711
 1356TIP3   OH2 4496   0.664   2.230   4.712  0.4646  0.7029 -0.0046
 1356TIP3    H1 4497   0.639   2.183   4.791  0.1895  1.1830  0.2012
 1356TIP3    H2 4498   0.722   2.300   4.743  0.1713  1.0329 -0.1959
 1357TIP3   OH2 4499   0.107   4.102   4.038  0.3316 -0.2246 -0.0520
 1357TIP3    H1 4500   0.036   4.120   3.977 -0.3028  0.6288  0.9005
 1357TIP3    H2 4501   0.185   4.098   3.984 -0.0865  1.4183 -0.8281
 1358TIP3   OH2 4502   5.735   2.168   3.858 -0.3091  0.0491 -0.2825
 1358TIP3    H1 4503   5.682   2.092   3.882  0.9548 -1.2076 -1.4063
 1358TIP3    H2 4504   5.712   2.234   3.923 -0.9197 -1.5132  1.1348
 1359TIP3   OH2 4505   0.417   1.870   6.039 -0.6100 -0.0673 -0.4491
 1359TIP3    H1 4506   0.331   1.907   6.060 -1.0720 -0.7870 -1.0658
 1359TIP3    H2 4507   0.411   1.846   5.947 -0.7148 -2.7474  0.2324
 1360TIP3   OH2 4508   4.687   1.883   0.452 -0.5291  0.2822  0.1034
 1360TIP3    H1 4509   4.746   1.842   0.515  0.0433  0.6580 -0.1894
 1360TIP3    H2 4510   4.636   1.945   0.504  0.5208  1.1925  0.0523
 1361TIP3   OH2 4511   4.554   1.097   0.502 -0.5907  0.0291 -0.0789
 1361TIP3    H1 4512   4.508   1.013   0.502 -1.5547  0.5533  0.3688
 1361TIP3    H2 4513   4.523   1.141   0.423 -0.1745  0.0167 -0.2506
 1362TIP3   OH2 4514   5.643   3.858   3.748  0.2157 -0.8078  0.8916
 1362TIP3    H1 4515   5.606   3.940   3.781  0.9280 -0.9355  2.0392
 1362TIP3    H2 4516   5.657   3.873   3.655 -0.7775 -0.0423  0.8537
 1363TIP3   OH2 4517   0.126   2.680   2.909 -0.2556 -0.0189  0.2410
 1363TIP3    H1 4518   0.113   2.640   2.995  0.4110 -0.9702 -0.0868
 1363TIP3    H2 4519   0.061   2.750   2.904 -2.7282 -2.2807  0.0593
 1364TIP3   OH2 4520   5.768   0.360   2.290 -0.1866 -0.0933  0.4716
 1364TIP3    H1 4521   5.801   0.375   2.202 -0.4209 -0.5622  0.2976
 1364TIP3    H2 4522   5.822   0.288   2.324 -0.7010 -0.5334  0.3660
 1365TIP3   OH2 4523   0.392   2.503   1.848 -0.0885 -0.1076  0.4155
 1365TIP3    H1 4524   0.317   2.561   1.858 -2.3191 -2.7130 -0.7433
 1365TIP3    H2 4525   0.397   2.454   1.930 -0.9505 -1.3744 -0.2656
 1366TIP3   OH2 4526   5.815   3.704   1.441 -0.5992 -0.0773  0.3047
 1366TIP3    H1 4527   5.881   3.648   1.399  0.2373  0.8553  0.3605
 1366TIP3    H2 4528   5.860   3.742   1.516 -0.6208  2.0570 -0.7371
 1367TIP3   OH2 4529   5.884   1.312   0.374  0.5744  0.0119 -0.0734
 1367TIP3    H1 4530   5.926   1.397   0.378 -0.0916  0.3015  0.9125
 1367TIP3    H2 4531   5.820   1.319   0.303  0.3625  0.4008  0.1596
 1368TIP3   OH2 4532   5.432   3.633   4.395  0.2671  0.3752  0.2824
 1368TIP3    H1 4533   5.440   3.594   4.308 -0.2328  0.2127  0.3059
 1368TIP3    H2 4534   5.430   3.558   4.454 -0.6519  0.4274  0.3313
 1369TIP3   OH2 4535   0.395   1.326   2.051  0.2298 -0.2971  0.7162
 1369TIP3    H1 4536   0.429   1.321   2.141 -0.1363 -0.6676  0.8404
 1369TIP3    H2 4537   0.309   1.368   2.061  0.6115  0.5593  0.4167
 1370TIP3   OH2 4538   0.128   2.457   0.968  0.1684  0.0485 -0.2083
 1370TIP3    H1 4539   0.214   2.450   0.925 -1.3224 -0.6840 -3.2340
 1370TIP3    H2 4540   0.130   2.541   1.013  1.6298  1.0974 -2.1754
 1371TIP3   OH2 4541   4.688   2.018   5.477 -0.1795  0.5473  0.2066
 1371TIP3    H1 4542   4.644   1.941   5.514  2.5732 -1.8513 -1.2852
 1371TIP3    H2 4543   4.632   2.045   5.404 -0.4999 -0.8655 -0.0797
 1372TIP3   OH2 4544   4.871   1.244   4.335 -0.5430  0.4391 -0.1199
 1372TIP3    H1 4545   4.925   1.171   4.307 -0.1354  0.8912 -0.5223
 1372TIP3    H2 4546   4.847   1.223   4.425 -1.1813 -0.6274 -0.5314
 1373TIP3   OH2 4547   1.538   1.136   3.860  0.6654  0.4047  0.1324
 1373TIP3    H1 4548   1.601   1.066   3.844  0.5901  0.2208  0.6173
 1373TIP3    H2 4549   1.489   1.107   3.938 -1.3867 -0.4039 -1.4067
 1374TIP3   OH2 4550   1.319   3.530   2.219 -0.3525 -0.2728  0.0788
 1374TIP3    H1 4551   1.296   3.452   2.167 -2.2168  0.8643 -0.8271
 1374TIP3    H2 4552   1.264   3.524   2.297  2.2011 -1.7965  1.8572
 1375TIP3   OH2 4553   1.661   5.371   0.829 -0.2113  0.7917 -0.2700
 1375TIP3    H1 4554   1.633   5.408   0.745 -2.9393 -0.8476 -0.1515
 1375TIP3    H2 4555   1.727   5.305   0.804 -0.6970  0.6054 -1.1067
 1376TIP3   OH2 4556   0.380   3.055   0.829  0.5442 -0.4357  0.5100
 1376TIP3    H1 4557   0.433   3.060   0.908 -1.0373  0.6552  1.5380
 1376TIP3    H2 4558   0.290   3.044   0.861  0.0857 -1.8912 -1.1749
 1377TIP3   OH2 4559   2.973   0.136   3.470 -0.2882 -0.3062 -0.4522
 1377TIP3    H1 4560   3.064   0.128   3.498  0.0995 -0.2968 -1.6851
 1377TIP3    H2 4561   2.942   0.217   3.511  0.2817 -0.2518 -0.1270
 1378TIP3   OH2 4562   0.410   1.009   5.912 -0.2557 -0.1623 -0.4324
 1378TIP3    H1 4563   0.441   1.080   5.857  0.8329  0.9506  1.5480
 1378TIP3    H2 4564   0.363   1.053   5.983 -0.8927 -1.5024 -0.0035
 1379TIP3   OH2 4565   5.882   5.023   6.047  0.1342 -0.0232  0.3391
 1379TIP3    H1 4566   5.906   4.936   6.015  0.8905  0.1227  0.5038
 1379TIP3    H2 4567   5.822   5.057   5.980  0.5420 -0.3115 -0.1785
 1380TIP3   OH2 4568   5.739   1.712   4.980  0.0247 -0.0884  0.2377
 1380TIP3    H1 4569   5.687   1.753   5.049 -1.5553 -0.2987 -0.7982
 1380TIP3    H2 4570   5.830   1.724   5.008 -0.6004 -0.7876  2.6846
 1381TIP3   OH2 4571   0.249   0.956   1.749 -0.2068  0.1167 -0.5598
 1381TIP3    H1 4572   0.191   1.028   1.771  1.8863  1.4676  0.7028
 1381TIP3    H2 4573   0.331   0.998   1.723  0.6134 -1.7774 -1.1518
 1382TIP3   OH2 4574   0.369   3.645   4.500 -0.0549  0.4141  0.2831
 1382TIP3    H1 4575   0.278   3.637   4.528  0.2381  0.2072  1.1888
 1382TIP3    H2 4576   0.382   3.572   4.439 -0.7673  1.0263 -0.6222
 1383TIP3   OH2 4577   0.131   3.016   0.978  0.0881 -0.2505 -0.6812
 1383TIP3    H1 4578   0.122   2.928   1.014  0.9615  0.6311  1.8644
 1383TIP3    H2 4579   0.045   3.057   0.994 -0.3934 -0.6983 -2.0752
 1384TIP3   OH2 4580   2.994   4.566   0.604 -0.6182 -0.2526 -0.1366
 1384TIP3    H1 4581   3.013   4.626   0.676 -1.1447  1.5358 -1.4588
 1384TIP3    H2 4582   3.072   4.510   0.599 -1.8532 -2.4452  3.7673
 1385TIP3   OH2 4583   1.396   5.943   0.740 -0.1939 -0.3151 -0.5233
 1385TIP3    H1 4584   1.405   5.944   0.835  1.7796 -0.2947 -0.7055
 1385TIP3    H2 4585   1.410   6.034   0.714 -0.4883 -0.3689 -0.8753
 1386TIP3   OH2 4586   1.137   0.199   2.320 -0.1880  0.9502  0.4531
 1386TIP3    H1 4587   1.224   0.161   2.329 -0.7236 -0.3339  0.3680
 1386TIP3    H2 4588   1.133   0.228   2.229  0.8486  2.8415  0.9738
 1387TIP3   OH2 4589   5.814   4.973   1.792  0.5075 -0.1695 -0.5651
 1387TIP3    H1 4590   5.798   5.004   1.881  1.6067 -0.3271 -0.3027
 1387TIP3    H2 4591   5.757   5.026   1.737 -0.9657 -0.7819  0.3322
 1388TIP3   OH2 4592   0.073   2.570   1.631 -0.7526 -0.0718  0.7919
 1388TIP3    H1 4593   0.115   2.608   1.708 -1.2886 -0.2411  1.1777
 1388TIP3    H2 4594   0.033   2.489   1.664 -0.3780 -0.5073  0.1762
 1389TIP3   OH2 4595   0.889   3.062   2.971 -0.4044 -0.1582 -0.5707
 1389TIP3    H1 4596   0.878   3.137   3.030  1.4289 -0.6607  0.4688
 1389TIP3    H2 4597   0.809   3.011   2.982 -0.9675  0.8197 -0.0541
 1390TIP3   OH2 4598   3.332   5.383   0.631 -0.1862 -0.0540 -0.3708
 1390TIP3    H1 4599   3.343   5.367   0.725  0.6347  1.7215 -0.1428
 1390TIP3    H2 4600   3.389   5.319   0.589 -0.6377 -0.9298  0.3180
 1391TIP3   OH2 4601   2.827   4.207   1.407 -0.3276 -0.2226 -0.5297
 1391TIP3    H1 4602   2.836   4.191   1.501 -0.3898 -2.5536 -0.8755
 1391TIP3    H2 4603   2.911   4.246   1.382  0.6300 -1.7769  0.1137
 1392TIP3   OH2 4604   4.451   3.045   2.062 -0.4765 -0.1525  0.3825
 1392TIP3    H1 4605   4.388   3.044   1.990 -1.7280  0.8265  1.4286
 1392TIP3    H2 4606   4.480   3.136   2.066  1.0953 -0.6083 -0.1340
 1393TIP3   OH2 4607   0.612   3.984   2.963 -0.1751 -0.9449  0.0331
 1393TIP3    H1 4608   0.568   4.040   3.027  1.4790  0.4772 -0.0424
 1393TIP3    H2 4609   0.637   3.906   3.011 -1.0609 -0.9334  0.5282
 1394TIP3   OH2 4610   5.410   3.635   2.651 -0.3220 -0.2911  0.3870
 1394TIP3    H1 4611   5.409   3.539   2.654  1.3340 -0.3162  0.8652
 1394TIP3    H2 4612   5.325   3.661   2.685 -0.4234 -1.5896  1.1667
 1395TIP3   OH2 4613   2.518   6.067   5.650 -0.3917  0.1395  0.5871
 1395TIP3    H1 4614   2.562   6.033   5.728 -0.6791 -0.1286  0.6324
 1395TIP3    H2 4615   2.437   6.016   5.644  0.2820 -0.8237 -0.6785
 1396TIP3   OH2 4616   2.747   5.961   1.514  0.5329 -0.6130 -0.1298
 1396TIP3    H1 4617   2.720   5.880   1.557  2.2384 -1.7549 -1.1473
 1396TIP3    H2 4618   2.801   5.933   1.440  0.8450  1.4378 -0.7259
 1397TIP3   OH2 4619   1.896   5.642   0.679 -0.0207  0.6606 -0.1991
 1397TIP3    H1 4620   1.899   5.653   0.774  0.3167 -0.2364 -0.0993
 1397TIP3    H2 4621   1.836   5.711   0.648  0.8336  1.7435  0.5328
 1398TIP3   OH2 4622   3.503   4.634   2.233 -0.0315  0.0587 -0.4584
 1398TIP3    H1 4623   3.473   4.661   2.146 -1.9021 -0.2080  0.0738
 1398TIP3    H2 4624   3.503   4.539   2.230 -0.6264  0.0417 -0.0032
 1399TIP3   OH2 4625   0.297   2.140   1.792 -0.2925 -0.1659  0.4470
 1399TIP3    H1 4626   0.264   2.183   1.871  2.1323  2.7112 -0.0235
 1399TIP3    H2 4627   0.233   2.161   1.724 -1.3977 -1.0559  1.1943
 1400TIP3   OH2 4628   0.532   4.974   1.887  0.1590 -0.2411 -0.2826
 1400TIP3    H1 4629   0.577   4.982   1.803 -0.8679  0.0137 -0.8121
 1400TIP3    H2 4630   0.593   4.924   1.942 -0.0550 -2.2853 -1.8384
 1401TIP3   OH2 4631   2.083   1.126   5.973 -0.2155  0.2328  0.6424
 1401TIP3    H1 4632   2.126   1.081   5.900 -0.4997  1.5930 -0.3832
 1401TIP3    H2 4633   2.086   1.063   6.045 -1.5779 -1.8436 -1.0600
 1402TIP3   OH2 4634   0.833   2.662   3.223  0.7193 -0.3329  0.4646
 1402TIP3    H1 4635   0.750   2.649   3.268 -0.1889 -1.8679 -1.5625
 1402TIP3    H2 4636   0.820   2.740   3.169 -0.3127 -1.9876 -1.7603
 1403TIP3   OH2 4637   0.254   4.598   1.414  0.1725  0.3230  0.4871
 1403TIP3    H1 4638   0.237   4.636   1.328  0.6142 -1.6119 -0.4810
 1403TIP3    H2 4639   0.286   4.509   1.396 -2.9849 -1.3766  2.7062
 1404TIP3   OH2 4640   0.785   4.673   0.911 -0.2874 -0.1260 -0.2297
 1404TIP3    H1 4641   0.798   4.744   0.975 -0.0646  0.2659 -0.7035
 1404TIP3    H2 4642   0.870   4.664   0.868 -0.9444  0.9011 -1.7866
 1405TIP3   OH2 4643   5.577   4.868   0.589  0.0580  0.6021  0.0629
 1405TIP3    H1 4644   5.642   4.800   0.609 -0.3002  0.1118 -0.4082
 1405TIP3    H2 4645   5.549   4.848   0.500 -2.8944 -0.9945  1.2705
 1406TIP3   OH2 4646   1.074   0.108   0.484 -0.7234  0.1884 -0.3862
 1406TIP3    H1 4647   1.004   0.087   0.546 -0.4636  0.9387  0.1723
 1406TIP3    H2 4648   1.152   0.067   0.522 -0.7345 -0.0815 -0.6605
 1407TIP3   OH2 4649   0.414   3.173   1.495  0.3167 -0.0807  0.2061
 1407TIP3    H1 4650   0.325   3.139   1.487  0.6139 -0.8608  0.1972
 1407TIP3    H2 4651   0.409   3.262   1.461 -0.2024 -0.5339 -0.9229
 1408TIP3   OH2 4652   3.280   4.159   1.905  0.1851  0.3808 -0.4631
 1408TIP3    H1 4653   3.368   4.124   1.893 -0.0810 -0.3676 -0.2135
 1408TIP3    H2 4654   3.222   4.083   1.901 -0.3999  0.7893  0.0201
 1409TIP3   OH2 4655   2.716   2.803   1.350  0.1811  0.6329  0.4218
 1409TIP3    H1 4656   2.769   2.882   1.338  0.9763  0.2915  1.5690
 1409TIP3    H2 4657   2.740   2.747   1.276  0.2908  1.1048  0.0968
 1410TIP3   OH2 4658   1.664   5.549   1.040 -0.4660 -0.0558  0.1373
 1410TIP3    H1 4659   1.631   5.481   0.981  0.0138  0.0112 -0.2087
 1410TIP3    H2 4660   1.639   5.518   1.127  0.2846 -0.9953  0.0365
 1411TIP3   OH2 4661   1.386   0.281   2.786 -0.0983  0.1024 -0.0364
 1411TIP3    H1 4662   1.448   0.294   2.858  0.6812  0.9893 -0.8619
 1411TIP3    H2 4663   1.304   0.257   2.830  0.8449 -1.1783  1.0540
 1412TIP3   OH2 4664   1.770   5.518   5.751  0.5315 -0.1563  0.4136
 1412TIP3    H1 4665   1.848   5.488   5.704  1.0886 -0.0654  1.2660
 1412TIP3    H2 4666   1.770   5.613   5.740 -0.4111 -0.3209 -1.0341
 1413TIP3   OH2 4667   1.126   4.566   0.178 -0.7061 -0.4145 -0.5333
 1413TIP3    H1 4668   1.133   4.596   0.269 -1.4946 -1.8661  0.0105
 1413TIP3    H2 4669   1.217   4.554   0.150 -0.4433  0.5812 -0.1362
 1414TIP3   OH2 4670   2.731   3.031   1.075  0.1442  0.1414 -0.1361
 1414TIP3    H1 4671   2.720   3.117   1.033 -1.1438 -0.0971 -0.2988
 1414TIP3    H2 4672   2.666   2.975   1.034 -0.8187 -0.2339  1.8320
 1415TIP3   OH2 4673   2.287   4.898   1.892  0.0270  0.3729 -0.2570
 1415TIP3    H1 4674   2.249   4.832   1.835  0.8041 -1.5392  1.3652
 1415TIP3    H2 4675   2.363   4.931   1.844  1.9985 -2.8367  0.5477
 1416TIP3   OH2 4676   0.077   4.967   1.945 -0.3951  0.1721 -0.5494
 1416TIP3    H1 4677   0.096   4.990   1.854 -1.2398 -2.4241 -1.4468
 1416TIP3    H2 4678   0.161   4.942   1.981 -0.0999  0.9274 -0.7049
 1417TIP3   OH2 4679   1.499   4.522   0.986 -0.0086  0.7846  0.4282
 1417TIP3    H1 4680   1.541   4.495   1.068 -2.0397 -1.4724  0.7676
 1417TIP3    H2 4681   1.429   4.459   0.973 -1.2372  2.5532 -1.8358
 1418TIP3   OH2 4682   2.529   0.823   2.322 -0.6447 -0.1600  0.3211
 1418TIP3    H1 4683   2.609   0.855   2.364 -0.1302  0.1432 -0.8767
 1418TIP3    H2 4684   2.493   0.899   2.277 -3.2614  0.4730  3.3337
 1419TIP3   OH2 4685   1.161   5.429   0.189  0.3267 -0.0948 -0.1713
 1419TIP3    H1 4686   1.111   5.398   0.264  1.5859 -0.9281  0.3317
 1419TIP3    H2 4687   1.107   5.407   0.113  0.4072 -1.9315  0.2970
 1420TIP3   OH2 4688   0.686   5.388   2.414  0.2601 -0.6076 -0.4034
 1420TIP3    H1 4689   0.679   5.451   2.486 -0.0078  0.1598 -1.0818
 1420TIP3    H2 4690   0.779   5.368   2.409  0.0316 -2.1446  1.3850
 1421TIP3   OH2 4691   5.338   4.604   2.640  0.0731 -0.1423  0.2256
 1421TIP3    H1 4692   5.293   4.620   2.723 -0.6772 -2.4395  0.3126
 1421TIP3    H2 4693   5.431   4.596   2.664 -0.1984 -1.2948  0.9424
 1422TIP3   OH2 4694   0.154   1.159   5.828  0.4857  0.2115  0.0328
 1422TIP3    H1 4695   0.237   1.153   5.780  0.5065 -0.0547  0.0966
 1422TIP3    H2 4696   0.179   1.181   5.917  0.5702 -0.8685  0.2910
 1423TIP3   OH2 4697   1.392   3.879   3.270  0.1421 -0.3183  0.0450
 1423TIP3    H1 4698   1.314   3.934   3.268 -0.9503 -1.7202  1.9850
 1423TIP3    H2 4699   1.366   3.799   3.223  0.8871 -0.2318 -0.5328
 1424TIP3   OH2 4700   0.280   4.987   0.911 -0.2842 -0.3453  0.6245
 1424TIP3    H1 4701   0.374   5.003   0.911 -0.4132  0.4743  0.4042
 1424TIP3    H2 4702   0.270   4.898   0.878  0.4576 -0.7225  1.4246
 1425TIP3   OH2 4703   5.219   4.329   4.402  0.0200  0.1468  0.5996
 1425TIP3    H1 4704   5.239   4.312   4.310 -0.5247 -0.8520  0.6647
 1425TIP3    H2 4705   5.187   4.246   4.436 -0.3369  0.6627  1.5508
 1426TIP3   OH2 4706   3.350   1.532   4.818  0.2368 -0.3710 -0.3628
 1426TIP3    H1 4707   3.325   1.585   4.893 -0.4746 -0.9420 -0.1832
 1426TIP3    H2 4708   3.291   1.561   4.748 -0.2532 -1.0115 -0.2233
 1427TIP3   OH2 4709   5.396   4.219   0.140 -0.1889  0.3602  0.2730
 1427TIP3    H1 4710   5.331   4.174   0.086  2.6677 -0.6148 -2.5089
 1427TIP3    H2 4711   5.396   4.170   0.222 -2.3711 -0.0801  0.0522
 1428TIP3   OH2 4712   2.725   5.452   6.029  0.0604 -0.3508  0.3844
 1428TIP3    H1 4713   2.794   5.386   6.023 -0.4674 -0.8686 -0.1869
 1428TIP3    H2 4714   2.767   5.528   6.067  0.9960 -0.5932 -0.1558
 1429TIP3   OH2 4715   1.461   4.126   4.761  0.7367  0.0551  0.3804
 1429TIP3    H1 4716   1.445   4.085   4.676  0.8253  0.2397  0.2748
 1429TIP3    H2 4717   1.397   4.086   4.819  1.5803 -1.0813  0.5476
 1430TIP3   OH2 4718   0.529   0.007   1.088  0.0846  0.0505  1.1222
 1430TIP3    H1 4719   0.454   0.064   1.067  1.5166  1.6758  0.3256
 1430TIP3    H2 4720   0.491  -0.064   1.139 -1.9370  1.1291  1.1723
 1431TIP3   OH2 4721   2.114   3.996   1.521 -0.0957 -0.2432  0.0196
 1431TIP3    H1 4722   2.046   4.061   1.500 -0.1751  0.1276  1.3610
 1431TIP3    H2 4723   2.175   4.002   1.448 -0.1609  1.2834  0.0640
 1432TIP3   OH2 4724   5.456   2.012   0.752  0.1357 -0.2222 -0.0652
 1432TIP3    H1 4725   5.524   2.031   0.817  1.9595 -2.1373 -1.3519
 1432TIP3    H2 4726   5.399   2.089   0.754  2.6035  1.6706  0.7155
 1433TIP3   OH2 4727   4.607   5.815   2.684 -0.4447  0.1395 -0.5832
 1433TIP3    H1 4728   4.696   5.815   2.718 -0.4331 -0.3971 -0.6046
 1433TIP3    H2 4729   4.553   5.783   2.756 -0.2757 -2.0766 -1.4101
 1434TIP3   OH2 4730   2.729   5.421   5.446  0.6328 -0.2266  0.1591
 1434TIP3    H1 4731   2.819   5.451   5.457  1.5349 -2.3706 -1.0131
 1434TIP3    H2 4732   2.723   5.342   5.499 -0.8277  0.3542  0.8940
 1435TIP3   OH2 4733   1.260   1.941   0.520  0.4898 -0.2881  0.0567
 1435TIP3    H1 4734   1.268   1.889   0.440  2.4025 -1.2985  0.8630
 1435TIP3    H2 4735   1.337   1.917   0.571 -0.6459  0.4529  2.1471
 1436TIP3   OH2 4736   1.139   6.051   5.517 -0.4175  0.0031  0.4008
 1436TIP3    H1 4737   1.072   6.106   5.476  1.6324  2.7360  0.5300
 1436TIP3    H2 4738   1.097   5.967   5.530 -3.1571  1.0337 -1.3999
 1437TIP3   OH2 4739   4.925   3.858   2.019 -0.6850 -0.1115 -0.7147
 1437TIP3    H1 4740   4.863   3.821   1.957 -0.4351 -0.6053 -0.6760
 1437TIP3    H2 4741   4.873   3.914   2.076 -1.0124 -0.1462 -0.9819
 1438TIP3   OH2 4742   5.842   4.531   1.401 -0.4965  1.0973 -0.2447
 1438TIP3    H1 4743   5.925   4.497   1.432 -0.7041  1.3231  0.5543
 1438TIP3    H2 4744   5.783   4.456   1.403 -0.4520  1.0594 -0.3231
 1439TIP3   OH2 4745   4.328   4.111   5.978 -0.5815  0.1581 -0.7758
 1439TIP3    H1 4746   4.343   4.084   6.069  1.8503 -1.8280 -1.6935
 1439TIP3    H2 4747   4.371   4.196   5.971  1.3728 -0.7932 -0.6644
 1440TIP3   OH2 4748   0.548   1.951   0.178  0.8126  0.5527 -0.2204
 1440TIP3    H1 4749   0.464   1.955   0.134  0.3043 -1.3775  0.5050
 1440TIP3    H2 4750   0.540   1.876   0.238  3.0856  0.2405 -0.2630
 1441TIP3   OH2 4751   1.509   2.794   2.370 -0.6761  0.4292 -0.5142
 1441TIP3    H1 4752   1.446   2.740   2.417  0.0555 -0.7432 -0.8469
 1441TIP3    H2 4753   1.521   2.749   2.286  0.4349  0.7467 -0.5378
 1442TIP3   OH2 4754   2.126   2.112   1.742  0.0567  0.2922 -0.1144
 1442TIP3    H1 4755   2.219   2.111   1.720  0.2158 -1.6967  0.4840
 1442TIP3    H2 4756   2.120   2.164   1.822  0.3796  2.0259 -1.2100
 1443TIP3   OH2 4757   0.517   3.068   0.521  0.1162  0.1407 -0.3685
 1443TIP3    H1 4758   0.446   3.110   0.569 -2.7524 -0.4914 -3.8460
 1443TIP3    H2 4759   0.510   2.976   0.543  0.6418  0.2201  0.1668
 1444TIP3   OH2 4760   4.548   4.291   5.847 -0.3779  0.4708  0.4132
 1444TIP3    H1 4761   4.608   4.352   5.805 -1.5688  0.9179 -0.6568
 1444TIP3    H2 4762   4.491   4.346   5.900 -0.7332  0.1803  0.3371
 1445TIP3   OH2 4763   6.037   0.379   1.337  0.3250  0.1548  0.6269
 1445TIP3    H1 4764   5.961   0.360   1.392  0.1073  0.1002  0.3135
 1445TIP3    H2 4765   6.113   0.354   1.389  0.1174  0.0500  0.8760
 1446TIP3   OH2 4766   0.570   5.353   5.390  0.0842 -0.0714 -0.1326
 1446TIP3    H1 4767   0.509   5.316   5.454 -0.1775  1.4714  0.5560
 1446TIP3    H2 4768   0.651   5.367   5.439 -0.2631  1.5588  0.0379
 1447TIP3   OH2 4769   0.878   0.389   1.425 -0.2650 -0.8558  0.2543
 1447TIP3    H1 4770   0.837   0.465   1.467  0.4432 -0.6298  0.5462
 1447TIP3    H2 4771   0.971   0.410   1.424 -0.1735 -1.2687 -0.5982
 1448TIP3   OH2 4772   2.140   4.718   0.103  0.5276  0.3592 -0.3573
 1448TIP3    H1 4773   2.216   4.663   0.122 -0.2550 -1.0139 -1.1313
 1448TIP3    H2 4774   2.086   4.665   0.045 -1.4217  1.0078  0.8357
 1449TIP3   OH2 4775   5.788   5.597   0.452 -0.0321 -0.0982  0.3629
 1449TIP3    H1 4776   5.860   5.653   0.423 -2.0711  2.4055 -0.0576
 1449TIP3    H2 4777   5.776   5.620   0.544  0.1817 -1.0460  0.6276
 1450TIP3   OH2 4778   0.982   2.913   2.277  0.4472 -0.2201 -0.3425
 1450TIP3    H1 4779   0.948   2.905   2.188 -0.7832  0.3019  0.0646
 1450TIP3    H2 4780   0.911   2.882   2.333  0.7671  0.5636  0.5197
 1451TIP3   OH2 4781   6.026   2.126   0.706  0.6327 -0.2502 -0.2405
 1451TIP3    H1 4782   6.047   2.183   0.632 -0.5137 -0.1648 -0.5076
 1451TIP3    H2 4783   5.933   2.106   0.695  0.8351 -1.5273  0.2889
 1452TIP3   OH2 4784   5.056   2.801   1.541  0.3598  0.3178 -0.0801
 1452TIP3    H1 4785   4.974   2.830   1.581  0.3102  0.2221 -0.1121
 1452TIP3    H2 4786   5.037   2.712   1.511  0.6171  0.1198  0.3312
 1453TIP3   OH2 4787   0.118   3.668   1.604 -0.0146  0.0058  0.0583
 1453TIP3    H1 4788   0.199   3.695   1.561 -1.0358  1.2775 -1.1073
 1453TIP3    H2 4789   0.087   3.748   1.646 -1.4610 -0.1074 -0.7844
 1454TIP3   OH2 4790   5.727   6.004   5.749 -0.2009  0.0828 -0.8024
 1454TIP3    H1 4791   5.806   5.955   5.727 -0.1925  0.2786 -1.2103
 1454TIP3    H2 4792   5.656   5.955   5.708 -0.3982 -0.5885  0.3067
 1455TIP3   OH2 4793   4.838   2.956   0.536  0.3657 -0.5969 -0.0439
 1455TIP3    H1 4794   4.784   3.008   0.476  0.4867  0.2411  0.5607
 1455TIP3    H2 4795   4.912   3.013   0.557 -1.1392  0.3047  3.1717
 1456TIP3   OH2 4796   0.454   5.219   5.168 -0.3588 -0.4917 -0.1306
 1456TIP3    H1 4797   0.496   5.266   5.240  0.8871 -0.9518 -0.5468
 1456TIP3    H2 4798   0.525   5.201   5.106 -1.6590  1.2186 -2.1968
 1457TIP3   OH2 4799   2.757   4.715   1.525  0.2357 -0.2372 -0.1235
 1457TIP3    H1 4800   2.818   4.781   1.560 -0.3653  0.6797 -0.7653
 1457TIP3    H2 4801   2.814   4.645   1.493  0.8855 -0.0723  0.6426
 1458TIP3   OH2 4802   0.166   3.125   2.242 -0.2093 -0.6550 -0.0492
 1458TIP3    H1 4803   0.151   3.119   2.336 -1.5479  0.0273 -0.2122
 1458TIP3    H2 4804   0.256   3.094   2.230 -0.2581 -1.3729  1.3685
 1459TIP3   OH2 4805   1.169   5.405   1.878  0.4177  0.0130  0.3168
 1459TIP3    H1 4806   1.117   5.336   1.836  0.7340  0.2121 -0.4209
 1459TIP3    H2 4807   1.128   5.418   1.963 -0.3225 -0.3099  0.0117
 1460TIP3   OH2 4808   1.780   1.232   1.694 -0.4086 -0.3935  0.2968
 1460TIP3    H1 4809   1.763   1.289   1.619  1.0256 -0.0252  0.2382
 1460TIP3    H2 4810   1.823   1.155   1.657 -0.9778 -0.8437  0.5666
 1461TIP3   OH2 4811   1.297   4.101   1.775 -0.7149 -0.1450 -0.0195
 1461TIP3    H1 4812   1.261   4.188   1.791  3.2457  1.5195  0.4026
 1461TIP3    H2 4813   1.311   4.064   1.862  0.8051  0.2146 -0.0974
 1462TIP3   OH2 4814   0.242   4.021   1.062 -0.2098  0.4645 -0.0612
 1462TIP3    H1 4815   0.276   4.012   0.973 -1.2134 -1.7230 -0.2472
 1462TIP3    H2 4816   0.148   4.036   1.052 -0.2953  0.4372  0.6285
 1463TIP3   OH2 4817   5.309   4.372   2.879  0.7858 -0.0310 -0.1411
 1463TIP3    H1 4818   5.257   4.452   2.893  0.5136 -0.2650  0.1857
 1463TIP3    H2 4819   5.261   4.326   2.810  1.1629  0.2784 -0.6116
 1464TIP3   OH2 4820   0.740   4.168   0.420  0.0769 -0.6798  0.1597
 1464TIP3    H1 4821   0.774   4.244   0.372  0.3975 -1.3551 -0.6969
 1464TIP3    H2 4822   0.805   4.152   0.488 -0.7152  0.6952  1.2718
 1465TIP3   OH2 4823   1.535   5.948   0.133  0.6048  0.2880 -0.1733
 1465TIP3    H1 4824   1.592   5.926   0.207  1.9311  1.0689 -0.9482
 1465TIP3    H2 4825   1.517   5.863   0.091  1.4720  0.0772 -0.1267
 1466TIP3   OH2 4826   0.805   5.272   1.148  0.5761 -0.0756  0.2300
 1466TIP3    H1 4827   0.746   5.252   1.075  0.4703 -0.8374  0.5123
 1466TIP3    H2 4828   0.754   5.327   1.207  0.0694 -0.8994  0.5733
 1467TIP3   OH2 4829   3.533   2.989   2.360 -1.1520 -0.2215  0.5536
 1467TIP3    H1 4830   3.557   2.897   2.351  0.1217  0.0929  0.6140
 1467TIP3    H2 4831   3.438   2.989   2.361 -1.2728 -1.2466 -2.8219
 1468TIP3   OH2 4832   1.897   2.921   0.852  0.3020 -0.0713 -0.0556
 1468TIP3    H1 4833   1.939   2.904   0.936 -0.1082  0.2936  0.2249
 1468TIP3    H2 4834   1.866   3.012   0.858  1.5026  0.4288 -1.1217
 1469TIP3   OH2 4835   3.975   0.316   1.096  0.0194 -0.5435 -0.3340
 1469TIP3    H1 4836   3.979   0.285   1.187 -1.1847  0.3440  0.0349
 1469TIP3    H2 4837   3.944   0.406   1.102 -1.9270 -1.0805 -1.7308
 1470TIP3   OH2 4838   5.160   2.522   5.859 -0.1630  0.1284 -0.1275
 1470TIP3    H1 4839   5.134   2.430   5.871 -0.5640  0.2546 -0.0009
 1470TIP3    H2 4840   5.088   2.560   5.809 -0.2338  0.4923  0.2516
 1471TIP3   OH2 4841   0.048   3.733   2.349 -0.1067 -0.6145 -0.7698
 1471TIP3    H1 4842  -0.025   3.711   2.407  0.2173  0.1786 -0.0572
 1471TIP3    H2 4843   0.126   3.708   2.399  0.0997 -2.1842 -1.8336
 1472TIP3   OH2 4844   0.826   2.718   3.960 -0.1651 -0.7568  0.6910
 1472TIP3    H1 4845   0.890   2.756   3.900 -0.9869  1.4100  1.1344
 1472TIP3    H2 4846   0.878   2.675   4.027  0.7811 -3.5693 -1.7374
 1473TIP3   OH2 4847   3.801   0.299   1.758  0.0277  0.0522 -0.0103
 1473TIP3    H1 4848   3.779   0.379   1.805  0.7846  0.6613 -0.6645
 1473TIP3    H2 4849   3.863   0.328   1.690  0.9152 -1.2091  0.2425
 1474TIP3   OH2 4850   5.761   4.978   5.780  0.1679 -0.7403  0.5252
 1474TIP3    H1 4851   5.837   4.932   5.745 -0.7467 -0.9768 -1.2101
 1474TIP3    H2 4852   5.765   5.064   5.739  2.5008  1.2386  4.6199
 1475TIP3   OH2 4853   2.046   3.947   3.642  0.0445  0.2008 -0.1283
 1475TIP3    H1 4854   2.027   3.968   3.551  0.1529  0.5222 -0.0751
 1475TIP3    H2 4855   2.138   3.970   3.654  0.3329 -0.8710 -0.2444
 1476TIP3   OH2 4856   2.966   4.964   0.907 -0.4026  0.1589  0.4397
 1476TIP3    H1 4857   2.996   4.873   0.903  0.7867  0.5642  0.0374
 1476TIP3    H2 4858   2.871   4.958   0.894  0.2112 -0.6467 -5.2044
 1477TIP3   OH2 4859   1.156   5.571   2.664  0.0588 -0.2774 -0.1016
 1477TIP3    H1 4860   1.219   5.640   2.683 -0.3903 -0.4710  2.1594
 1477TIP3    H2 4861   1.130   5.537   2.749  0.9488 -3.9082 -1.1936
 1478TIP3   OH2 4862   5.531   0.499   4.822 -0.0276 -0.0571 -0.2586
 1478TIP3    H1 4863   5.580   0.457   4.751  1.3402 -1.1935  1.3315
 1478TIP3    H2 4864   5.515   0.430   4.885 -0.2366  1.1849  1.0756
 1479TIP3   OH2 4865   5.052   3.140   0.494 -0.2524 -0.2612 -0.4074
 1479TIP3    H1 4866   5.031   3.187   0.575 -1.8888 -1.3264 -0.1712
 1479TIP3    H2 4867   5.015   3.195   0.425 -1.0682 -0.5793 -0.2291
 1480TIP3   OH2 4868   1.166   4.750   1.127 -0.3025 -0.2357  0.0658
 1480TIP3    H1 4869   1.244   4.757   1.071  0.0819 -0.9711  0.5034
 1480TIP3    H2 4870   1.093   4.764   1.067  0.1618  0.4276 -0.3582
 1481TIP3   OH2 4871   1.693   5.787   0.340 -0.2030  0.3352 -0.3914
 1481TIP3    H1 4872   1.724   5.819   0.425 -0.6289  1.7241 -0.7406
 1481TIP3    H2 4873   1.725   5.697   0.335  0.9444  0.6733  0.6703
 1482TIP3   OH2 4874   0.624   5.003   5.498  0.0221 -0.2811 -0.2382
 1482TIP3    H1 4875   0.682   5.035   5.429 -2.4374 -1.1123 -2.8329
 1482TIP3    H2 4876   0.538   5.038   5.474 -1.4039 -2.9344  0.8050
 1483TIP3   OH2 4877   1.047   3.650   1.560  0.4271  0.2226  0.0657
 1483TIP3    H1 4878   1.056   3.576   1.500 -2.8265  0.2573 -0.5919
 1483TIP3    H2 4879   1.132   3.658   1.602  1.3081 -2.9289 -0.9781
 1484TIP3   OH2 4880   0.425   3.066   4.562  0.0209  0.1728 -0.6131
 1484TIP3    H1 4881   0.495   3.005   4.585 -0.4555  0.5246  1.9915
 1484TIP3    H2 4882   0.357   3.011   4.523  0.9268 -0.4619 -1.3121
 1485TIP3   OH2 4883   2.807   5.533   1.884 -0.5366 -0.4341  0.0301
 1485TIP3    H1 4884   2.901   5.543   1.871 -0.1450 -0.5543  2.5192
 1485TIP3    H2 4885   2.779   5.474   1.814  1.2272 -0.3573 -0.7567
 1486TIP3   OH2 4886   2.346   4.444   5.813 -0.2568  0.0375  0.2168
 1486TIP3    H1 4887   2.331   4.430   5.719 -0.3304  0.6973  0.1287
 1486TIP3    H2 4888   2.315   4.533   5.829  0.7787  0.3264  0.6433
 1487TIP3   OH2 4889   5.436   5.586   2.705  0.2666  0.1499  0.4325
 1487TIP3    H1 4890   5.428   5.561   2.613 -0.1230 -0.1305  0.5428
 1487TIP3    H2 4891   5.412   5.679   2.707  2.8069  0.8847 -0.1621
 1488TIP3   OH2 4892   6.028   1.019   4.114  0.1208  0.2419 -0.0669
 1488TIP3    H1 4893   6.052   1.043   4.025  0.6263 -0.1038 -0.0279
 1488TIP3    H2 4894   6.085   0.945   4.135 -2.6146 -2.1842 -0.8254
 1489TIP3   OH2 4895   5.230   5.507   0.596 -0.0259 -0.4502 -0.0370
 1489TIP3    H1 4896   5.155   5.559   0.625 -0.6051 -0.6487 -1.1089
 1489TIP3    H2 4897   5.261   5.552   0.517  0.0657 -1.1801 -0.4229
 1490TIP3   OH2 4898   4.404   5.961   0.990  0.4367  0.1367 -0.5039
 1490TIP3    H1 4899   4.459   5.936   1.064  0.3433  0.1423 -0.4331
 1490TIP3    H2 4900   4.351   6.033   1.022  1.0752  0.7773 -0.8716
 1491TIP3   OH2 4901   5.812   4.790   4.417  0.2337 -0.3368 -0.2500
 1491TIP3    H1 4902   5.743   4.737   4.378  0.5560 -1.1884  0.3085
 1491TIP3    H2 4903   5.832   4.746   4.500 -0.7952  1.7258  1.1274
 1492TIP3   OH2 4904   4.671   4.458   4.581 -0.1101  0.2320 -0.0681
 1492TIP3    H1 4905   4.628   4.449   4.496 -0.9437 -1.7103  0.5382
 1492TIP3    H2 4906   4.764   4.443   4.562 -0.2949 -0.2202 -0.6475
 1493TIP3   OH2 4907   1.511   3.352   2.403 -0.2079  0.1268 -0.2877
 1493TIP3    H1 4908   1.569   3.290   2.358  0.8884  0.8150  0.1528
 1493TIP3    H2 4909   1.468   3.400   2.333  1.7773  1.4594 -0.6486
 1494TIP3   OH2 4910   1.055   3.212   0.947  0.1955 -0.4079  0.0623
 1494TIP3    H1 4911   1.011   3.235   0.866  0.0259 -0.4118  0.1532
 1494TIP3    H2 4912   1.063   3.295   0.994 -2.9938 -0.9463  1.6722
 1495TIP3   OH2 4913   1.524   5.189   4.637 -0.0835 -0.2758 -0.3747
 1495TIP3    H1 4914   1.543   5.103   4.600  2.3048  0.5845 -1.2117
 1495TIP3    H2 4915   1.562   5.187   4.724  0.5202  0.1373 -0.6248
 1496TIP3   OH2 4916   5.819   5.679   2.627  0.4484 -0.1898 -0.5063
 1496TIP3    H1 4917   5.782   5.590   2.631  2.1218 -0.8031  2.2984
 1496TIP3    H2 4918   5.906   5.666   2.589  0.2125  0.4510 -1.2803
 1497TIP3   OH2 4919   4.685   3.441   4.817 -0.1459 -0.0165 -0.6663
 1497TIP3    H1 4920   4.738   3.373   4.775  1.3952  1.3068 -0.9040
 1497TIP3    H2 4921   4.699   3.519   4.764 -2.4529  0.3505 -0.7988
 1498TIP3   OH2 4922   5.827   2.761   1.465  0.6932 -0.0101 -0.4085
 1498TIP3    H1 4923   5.768   2.794   1.396  1.3458  0.8760 -0.5641
 1498TIP3    H2 4924   5.854   2.840   1.512  0.0094 -0.6403  1.0834
 1499TIP3   OH2 4925   2.008   0.403   2.510  0.3037 -0.0802 -0.0208
 1499TIP3    H1 4926   1.925   0.444   2.533  0.7855  0.8117  0.1578
 1499TIP3    H2 4927   2.069   0.433   2.578  0.8711 -0.3546 -0.4070
 1500TIP3   OH2 4928   0.494   3.952   0.062  0.2252 -0.1759  0.3604
 1500TIP3    H1 4929   0.453   3.951   0.148 -0.9530  1.9091 -0.1342
 1500TIP3    H2 4930   0.421   3.964   0.001  1.3160  1.0866 -0.7237
 1501TIP3   OH2 4931   3.248   0.678   3.092 -0.0671 -0.2164  0.7165
 1501TIP3    H1 4932   3.167   0.633   3.117 -0.1227 -0.6181 -0.1619
 1501TIP3    H2 4933   3.278   0.632   3.013  0.6324  0.3887  0.6200
 1502TIP3   OH2 4934   1.474   4.407   2.128  0.0544 -0.1543  0.1796
 1502TIP3    H1 4935   1.554   4.459   2.138 -0.3471  0.8555 -1.5687
 1502TIP3    H2 4936   1.496   4.321   2.164  1.6160  0.3987  0.5947
 1503TIP3   OH2 4937   4.890   6.051   5.310  0.4279  0.0959  0.4900
 1503TIP3    H1 4938   4.927   5.963   5.297 -1.4064 -0.6869  0.4479
 1503TIP3    H2 4939   4.877   6.084   5.221  0.1268 -0.0160  0.4923
 1504TIP3   OH2 4940   0.801   4.361   0.753  0.1156  0.0068  0.2562
 1504TIP3    H1 4941   0.839   4.279   0.722  0.9117  0.5030 -0.1133
 1504TIP3    H2 4942   0.860   4.390   0.823  1.8099  1.9850 -1.9082
 1505TIP3   OH2 4943   1.574   3.001   6.030  0.1769 -0.2540  0.5270
 1505TIP3    H1 4944   1.580   2.955   6.113  1.2684 -0.4202  0.3635
 1505TIP3    H2 4945   1.590   3.093   6.051  5.0661 -0.8434 -0.0756
 1506TIP3   OH2 4946   6.054   5.372   5.718  0.6584 -0.1789  0.3648
 1506TIP3    H1 4947   6.062   5.283   5.751  0.5711  0.0331  0.9725
 1506TIP3    H2 4948   6.044   5.426   5.796 -3.5865 -0.0824 -0.1059
 1507TIP3   OH2 4949   0.908   1.645   0.850 -0.1617  0.0256 -0.1161
 1507TIP3    H1 4950   0.817   1.621   0.866 -0.9358  3.1911  0.5998
 1507TIP3    H2 4951   0.909   1.673   0.758 -0.0668  0.6811  0.0853
 1508TIP3   OH2 4952   1.952   5.510   2.099 -0.4813  0.2832  0.7686
 1508TIP3    H1 4953   1.863   5.523   2.067 -1.5586 -2.6484  2.3672
 1508TIP3    H2 4954   1.957   5.561   2.179 -0.0837  1.9383 -0.2875
 1509TIP3   OH2 4955   2.789   2.885   1.680 -0.2954  0.0251  0.0276
 1509TIP3    H1 4956   2.801   2.903   1.587 -0.4444  0.0805  0.0183
 1509TIP3    H2 4957   2.828   2.960   1.725  1.6038 -0.9708  0.0655
 1510TIP3   OH2 4958   1.356   0.217   3.330  0.1177 -0.4997 -0.4630
 1510TIP3    H1 4959   1.436   0.169   3.353 -0.4698 -1.0252  0.5091
 1510TIP3    H2 4960   1.337   0.191   3.240  0.8519 -0.6407 -0.5811
 1511TIP3   OH2 4961   0.467   5.002   1.232 -0.5138  0.2455 -0.1647
 1511TIP3    H1 4962   0.533   4.936   1.253 -0.5460  0.0706 -0.6136
 1511TIP3    H2 4963   0.502   5.048   1.156 -0.1499  1.2336  0.5853
 1512TIP3   OH2 4964   5.992   1.714   5.072 -0.3026  0.6216 -0.4575
 1512TIP3    H1 4965   6.053   1.788   5.072 -1.0279  1.2204 -1.0176
 1512TIP3    H2 4966   5.999   1.677   5.160 -0.6162  1.9076  0.1128
 1513TIP3   OH2 4967   2.062   2.054   3.310  0.4283 -0.1202  0.8611
 1513TIP3    H1 4968   2.156   2.074   3.301  0.3959 -0.3663 -0.0792
 1513TIP3    H2 4969   2.061   1.960   3.331  0.3382 -0.4997 -0.7538
 1514TIP3   OH2 4970   1.164   3.993   3.201 -0.0593  0.0206  0.7301
 1514TIP3    H1 4971   1.162   4.032   3.114 -1.4130  0.9104  1.1437
 1514TIP3    H2 4972   1.116   4.055   3.256 -0.7393 -1.3707  1.7495
 1515TIP3   OH2 4973   1.217   4.922   3.097 -0.5050 -0.6131  0.2249
 1515TIP3    H1 4974   1.260   4.838   3.078  2.2727  0.8130 -0.0647
 1515TIP3    H2 4975   1.164   4.940   3.019 -0.1026 -1.4920 -0.2568
 1516TIP3   OH2 4976   0.917   6.071   4.478  0.0446 -0.3816  0.6130
 1516TIP3    H1 4977   0.823   6.060   4.489  0.1776 -2.3605  0.0663
 1516TIP3    H2 4978   0.956   6.003   4.534  1.0721 -0.9339 -0.7388
 1517TIP3   OH2 4979   0.956   3.671   0.310  0.1764 -0.4877 -0.4994
 1517TIP3    H1 4980   0.890   3.636   0.370  2.3141 -3.1093  0.4088
 1517TIP3    H2 4981   0.924   3.647   0.223 -1.6114  1.0132 -0.2759
 1518TIP3   OH2 4982   1.182   4.059   4.867  0.1521 -0.0403  0.6035
 1518TIP3    H1 4983   1.163   4.011   4.948 -0.0847 -0.3823  0.3491
 1518TIP3    H2 4984   1.106   4.116   4.854  0.0859 -0.1499  0.5044
 1519TIP3   OH2 4985   1.421   0.137   1.048 -0.3373  0.3136  0.0134
 1519TIP3    H1 4986   1.335   0.151   1.007 -0.0651  0.5452 -0.4786
 1519TIP3    H2 4987   1.484   0.148   0.977  0.2228  2.0613  0.7456
 1520TIP3   OH2 4988   0.686   2.852   2.977  0.2425  0.1539  0.7135
 1520TIP3    H1 4989   0.632   2.821   3.050 -0.7306  0.0040 -0.0623
 1520TIP3    H2 4990   0.679   2.783   2.911  2.2028 -0.3456  0.9917
 1521TIP3   OH2 4991   2.119   0.022   4.770 -0.6148  0.7983  0.6808
 1521TIP3    H1 4992   2.190  -0.000   4.831 -3.0218 -3.0971  2.2747
 1521TIP3    H2 4993   2.049   0.055   4.826 -2.4927 -1.8955  0.0367
 1522TIP3   OH2 4994   0.890   4.588   3.656  0.3944  0.5103 -0.2877
 1522TIP3    H1 4995   0.907   4.512   3.713  0.8790  0.7690 -0.0858
 1522TIP3    H2 4996   0.859   4.549   3.574 -0.3010  0.1341  0.1518
 1523TIP3   OH2 4997   4.841   2.656   2.809 -0.2278 -0.2687  0.1224
 1523TIP3    H1 4998   4.928   2.618   2.800  1.0547  2.6406 -0.3313
 1523TIP3    H2 4999   4.856   2.740   2.853 -3.1434 -1.0349  2.8038
 1524TIP3   OH2 5000   2.303   5.485   2.774  0.0434 -0.2305 -0.1395
 1524TIP3    H1 5001   2.269   5.563   2.817 -0.7729 -1.0531  0.7139
 1524TIP3    H2 5002   2.262   5.411   2.819 -0.0632 -1.1408 -1.6615
 1525TIP3   OH2 5003   1.517   5.860   1.289  0.2031 -0.4410  0.3138
 1525TIP3    H1 5004   1.556   5.912   1.360  1.3682 -1.9282  0.7987
 1525TIP3    H2 5005   1.517   5.770   1.323 -1.7191 -0.7827 -0.5314
 1526TIP3   OH2 5006   1.603   2.730   3.210 -0.0946 -0.3101 -0.3677
 1526TIP3    H1 5007   1.509   2.735   3.193  0.1920 -0.0314 -2.0397
 1526TIP3    H2 5008   1.632   2.652   3.162  1.1056  1.6716 -3.0376
 1527TIP3   OH2 5009   1.841   5.197   1.157 -0.6255  0.6150 -0.0831
 1527TIP3    H1 5010   1.902   5.180   1.228 -1.5572 -0.0843  0.5763
 1527TIP3    H2 5011   1.876   5.273   1.112  0.6196  0.3320  0.3948
 1528TIP3   OH2 5012   0.296   3.852   3.983 -0.1133 -0.3299  0.4495
 1528TIP3    H1 5013   0.248   3.807   3.914  1.7695 -0.9303 -0.5145
 1528TIP3    H2 5014   0.258   3.940   3.986 -0.8438 -0.6029 -0.7020
 1529TIP3   OH2 5015   5.964   4.209   0.358 -0.5568  0.3281  0.1435
 1529TIP3    H1 5016   5.869   4.199   0.370 -0.2662 -0.9888  1.4067
 1529TIP3    H2 5017   5.978   4.188   0.265 -1.4206 -0.1082  0.1041
 1530TIP3   OH2 5018   0.571   4.468   0.119  0.3838 -0.3577 -0.5577
 1530TIP3    H1 5019   0.620   4.387   0.102 -0.0061 -0.7681  0.2534
 1530TIP3    H2 5020   0.499   4.440   0.175  0.2485  0.5667 -0.2743
 1531TIP3   OH2 5021   6.033   2.795   0.819 -0.0603  0.8088 -0.0215
 1531TIP3    H1 5022   6.048   2.889   0.809 -0.1218  0.8981  0.7062
 1531TIP3    H2 5023   6.011   2.784   0.912  0.7700 -0.0368  0.0833
 1532TIP3   OH2 5024   1.924   5.774   6.080 -0.4129 -0.5917  0.2642
 1532TIP3    H1 5025   2.005   5.761   6.128 -0.2438 -0.9171 -0.1025
 1532TIP3    H2 5026   1.943   5.741   5.992 -0.5146  0.5802 -0.2076
 1533TIP3   OH2 5027   5.974   0.150   2.157 -0.1229  0.4645  0.7394
 1533TIP3    H1 5028   6.045   0.098   2.121 -0.0084  1.6645 -0.8351
 1533TIP3    H2 5029   5.965   0.120   2.247  0.1078 -2.0738 -0.0571
 1534TIP3   OH2 5030   0.534   3.770   2.052  0.3636  0.3730  0.2094
 1534TIP3    H1 5031   0.497   3.688   2.086 -1.0405  0.7251 -0.4151
 1534TIP3    H2 5032   0.523   3.763   1.957  1.1420  0.8604  0.0825
 1535TIP3   OH2 5033   0.124   3.866   2.894 -0.6624 -0.4533  0.8079
 1535TIP3    H1 5034   0.128   3.937   2.830  0.1322  0.0107  1.3719
 1535TIP3    H2 5035   0.180   3.894   2.966  0.8233 -2.2769  0.4113
 1536TIP3   OH2 5036   5.391   5.173   1.248  0.4045 -0.2585  0.1227
 1536TIP3    H1 5037   5.347   5.151   1.166  1.2171  1.2965 -0.7532
 1536TIP3    H2 5038   5.326   5.221   1.299 -0.2607 -1.6513  0.6191
 1537TIP3   OH2 5039   4.778   4.564   4.828 -0.3417 -0.6196  0.0986
 1537TIP3    H1 5040   4.860   4.522   4.856 -0.6708 -2.8231 -2.0364
 1537TIP3    H2 5041   4.767   4.536   4.737 -1.5160  2.7749 -0.8845
 1538TIP3   OH2 5042   2.254   5.997   1.820 -0.3995 -0.0002 -0.7415
 1538TIP3    H1 5043   2.230   5.925   1.761  3.8992 -3.0389  0.9553
 1538TIP3    H2 5044   2.293   5.953   1.896  3.7070  4.1836 -0.2806
 1539TIP3   OH2 5045   3.389   4.882   0.160  0.2923 -0.2072 -0.0509
 1539TIP3    H1 5046   3.478   4.919   0.160 -0.1230  0.7969 -0.0004
 1539TIP3    H2 5047   3.364   4.880   0.252 -0.3281  0.9432 -0.1934
 1540TIP3   OH2 5048   1.819   4.713   5.339  1.0187 -0.0734  0.1823
 1540TIP3    H1 5049   1.904   4.730   5.299  0.6680  2.3289  0.3649
 1540TIP3    H2 5050   1.818   4.766   5.418 -0.4349 -0.5068  0.4855
 1541TIP3   OH2 5051   2.090   3.532   4.017 -0.1606 -0.2010  0.0269
 1541TIP3    H1 5052   1.998   3.558   4.010  0.3638  1.5200 -0.7426
 1541TIP3    H2 5053   2.133   3.576   3.944  1.2055 -1.3937  0.0847
 1542TIP3   OH2 5054   1.931   4.932   4.757  0.2028 -0.7949  0.2483
 1542TIP3    H1 5055   2.021   4.961   4.767 -0.4606  1.5693 -0.4007
 1542TIP3    H2 5056   1.914   4.936   4.663 -0.6942 -0.8632  0.4016
 1543TIP3   OH2 5057   3.084   6.049   1.519  0.5570 -0.0823  0.1191
 1543TIP3    H1 5058   3.174   6.019   1.502  0.0766 -1.2413 -0.4402
 1543TIP3    H2 5059   3.083   6.139   1.485  0.6004 -1.1884 -2.9793
 1544TIP3   OH2 5060   0.950   2.192   1.778 -0.1910 -0.5598 -0.8510
 1544TIP3    H1 5061   0.986   2.281   1.775  1.1696 -1.0716  0.0011
 1544TIP3    H2 5062   0.874   2.196   1.721 -0.4161  1.2831 -0.4747
 1545TIP3   OH2 5063   0.568   5.061   5.780 -0.5376  0.2161 -0.1317
 1545TIP3    H1 5064   0.596   5.017   5.700  0.7417  1.9418 -0.6364
 1545TIP3    H2 5065   0.504   5.000   5.819  2.4979 -2.9584  0.1272
 1546TIP3   OH2 5066   1.226   4.902   0.627  0.1532  0.1435 -0.2866
 1546TIP3    H1 5067   1.298   4.902   0.563  0.2459 -2.8209 -0.2597
 1546TIP3    H2 5068   1.266   4.936   0.707  0.3562  2.7038 -1.4175
 1547TIP3   OH2 5069   5.376   3.609   0.389  0.5169 -0.8397  0.4525
 1547TIP3    H1 5070   5.349   3.598   0.298 -2.8210  0.1010  1.2476
 1547TIP3    H2 5071   5.395   3.521   0.420  1.7298 -1.1591 -1.1478
 1548TIP3   OH2 5072   2.439   5.821   4.240  0.2435  0.4466  0.2693
 1548TIP3    H1 5073   2.486   5.747   4.202 -1.3351 -0.8559  0.8146
 1548TIP3    H2 5074   2.447   5.808   4.335 -1.2345  0.1749  0.3688
 1549TIP3   OH2 5075   6.038   0.424   3.097 -0.7012 -0.2425 -0.1874
 1549TIP3    H1 5076   6.101   0.492   3.074 -1.3013  0.7297  0.9366
 1549TIP3    H2 5077   5.959   0.472   3.121 -0.7425 -1.2714  1.8509
 1550TIP3   OH2 5078   0.770   3.591   0.517 -0.1875 -0.3518 -0.0299
 1550TIP3    H1 5079   0.728   3.670   0.549  1.5671  0.3600  0.5959
 1550TIP3    H2 5080   0.737   3.521   0.574 -1.2367  0.0423 -0.1593
 1551TIP3   OH2 5081   2.562   0.152   0.816 -0.1383  1.2081  0.6762
 1551TIP3    H1 5082   2.481   0.123   0.859  0.2251 -0.2380  0.4273
 1551TIP3    H2 5083   2.569   0.095   0.739 -0.6214  3.5464 -1.1400
 1552TIP3   OH2 5084   5.666   3.309   1.227  0.1419 -0.3188  0.0116
 1552TIP3    H1 5085   5.655   3.214   1.221  1.4393 -0.4740  0.0739
 1552TIP3    H2 5086   5.759   3.322   1.243  0.2451  1.0303 -1.5097
 1553TIP3   OH2 5087   1.290   4.426   0.437  0.4720  0.2889  0.6999
 1553TIP3    H1 5088   1.265   4.370   0.364 -1.0625  1.1284  0.5585
 1553TIP3    H2 5089   1.385   4.433   0.430  0.3426  0.4097 -1.2545
 1554TIP3   OH2 5090   0.090   3.402   0.508  0.2964 -0.3293  0.4320
 1554TIP3    H1 5091   0.049   3.486   0.528  2.4942  0.7854  0.3852
 1554TIP3    H2 5092   0.051   3.377   0.424 -0.7232  0.3869  0.6704
 1555TIP3   OH2 5093   4.526   4.385   0.564 -0.7451  0.2130  0.1041
 1555TIP3    H1 5094   4.613   4.348   0.582  0.0107  2.2557  0.8201
 1555TIP3    H2 5095   4.543   4.475   0.537 -2.6153  0.4685 -0.2993
 1556TIP3   OH2 5096   5.860   6.086   2.708 -0.3152  0.2845 -0.4606
 1556TIP3    H1 5097   5.945   6.063   2.745 -0.8674 -0.1620  0.5598
 1556TIP3    H2 5098   5.861   6.182   2.703 -0.3207  0.3677  0.9549
 1557TIP3   OH2 5099   2.331   2.056   3.540 -0.9625  0.2301  0.0439
 1557TIP3    H1 5100   2.272   2.081   3.611  1.1107 -1.4390  2.4347
 1557TIP3    H2 5101   2.351   1.964   3.556  1.2761  0.4157 -1.4482
 1558TIP3   OH2 5102   0.804   3.710   2.231  0.0030 -0.3721  0.2973
 1558TIP3    H1 5103   0.745   3.643   2.196  0.6583 -0.3038 -0.9582
 1558TIP3    H2 5104   0.759   3.743   2.308 -2.2910  0.6965 -1.4446
 1559TIP3   OH2 5105   5.586   5.576   0.998 -0.0389  0.4282 -0.0656
 1559TIP3    H1 5106   5.633   5.524   1.063 -1.7305  0.3108  1.1010
 1559TIP3    H2 5107   5.654   5.618   0.946  1.3332  0.4714  1.7490
 1560TIP3   OH2 5108   0.341   4.293   1.790  0.1164  0.4863  0.6770
 1560TIP3    H1 5109   0.383   4.377   1.810  1.9236  0.0834 -1.2722
 1560TIP3    H2 5110   0.315   4.259   1.875  0.7888  2.2975  1.6429
 1561TIP3   OH2 5111   3.767   3.839   5.918 -0.2036 -0.0723  0.3169
 1561TIP3    H1 5112   3.852   3.801   5.898 -0.1175  0.0661  0.4178
 1561TIP3    H2 5113   3.777   3.933   5.899 -0.4042 -0.0954  0.0980
 1562TIP3   OH2 5114   2.654   3.315   0.970 -0.5118 -0.0548 -0.2544
 1562TIP3    H1 5115   2.566   3.340   0.942 -0.1293  1.9244  0.2699
 1562TIP3    H2 5116   2.661   3.346   1.060  0.1903 -1.5591  0.2238
 1563TIP3   OH2 5117   4.884   6.090   3.637  0.0037 -0.1352 -0.4923
 1563TIP3    H1 5118   4.861   6.016   3.694 -0.7129 -0.8344 -1.6659
 1563TIP3    H2 5119   4.871   6.167   3.692 -2.1081 -0.7004 -0.1416
 1564TIP3   OH2 5120   1.921   5.067   3.807 -0.0236 -0.1163  0.3918
 1564TIP3    H1 5121   1.982   5.141   3.808 -0.5029  0.2928 -0.2935
 1564TIP3    H2 5122   1.892   5.061   3.716 -2.2367  0.6992  1.0189
 1565TIP3   OH2 5123   6.057   1.993   0.100  0.2467  0.4574 -0.3657
 1565TIP3    H1 5124   6.023   2.082   0.095  0.4388  0.6193  1.0579
 1565TIP3    H2 5125   6.029   1.961   0.185 -0.6856 -1.2111 -1.2716
 1566TIP3   OH2 5126   0.389   0.443   0.844 -0.3024 -0.1455 -0.3979
 1566TIP3    H1 5127   0.349   0.480   0.765 -1.4472 -3.2029 -1.3282
 1566TIP3    H2 5128   0.479   0.423   0.817 -1.1988 -2.8204 -1.5249
 1567TIP3   OH2 5129   5.507   6.025   2.936  0.1051  0.2207 -0.1326
 1567TIP3    H1 5130   5.516   6.052   2.844  0.4169  1.6230  0.3012
 1567TIP3    H2 5131   5.482   5.932   2.931  1.1174  0.0092 -1.6092
 1568TIP3   OH2 5132   2.249   5.804   1.023  0.0194  0.1374  0.0323
 1568TIP3    H1 5133   2.213   5.731   0.973  0.0608  1.4488 -1.9819
 1568TIP3    H2 5134   2.188   5.876   1.008  1.4439  1.3050 -0.3158
 1569TIP3   OH2 5135   0.688   4.687   3.280  0.3521 -0.6243  0.1398
 1569TIP3    H1 5136   0.673   4.709   3.188 -0.4202  0.4112  0.5030
 1569TIP3    H2 5137   0.604   4.655   3.311  0.6312 -1.0399  0.4686
 1570TIP3   OH2 5138   0.227   3.685   0.712 -0.3776  0.3644  0.0073
 1570TIP3    H1 5139   0.156   3.637   0.754  0.1143  0.3490  0.8495
 1570TIP3    H2 5140   0.184   3.759   0.669 -0.8893  0.4914  0.7140
 1571TIP3   OH2 5141   2.157   4.510   1.999  0.1758  0.0867  0.0421
 1571TIP3    H1 5142   2.110   4.470   2.073  0.4275  2.0981  1.3288
 1571TIP3    H2 5143   2.204   4.437   1.958 -0.0490 -1.0768  1.7978
 1572TIP3   OH2 5144   2.794   4.984   1.458  0.1250  0.0813  0.2944
 1572TIP3    H1 5145   2.824   5.024   1.377 -0.6669  3.0809  1.4313
 1572TIP3    H2 5146   2.735   4.914   1.430 -0.1684  1.1079 -1.7133
 1573TIP3   OH2 5147   2.358   4.740   5.849 -0.2847 -0.2940 -0.6284
 1573TIP3    H1 5148   2.338   4.833   5.832 -0.1538 -0.4574 -1.7154
 1573TIP3    H2 5149   2.349   4.731   5.944  1.6088  1.2901 -0.2526
 1574TIP3   OH2 5150   1.257   4.360   2.292  0.3051 -0.6388  0.3074
 1574TIP3    H1 5151   1.319   4.364   2.219 -0.0018 -1.8277 -0.0250
 1574TIP3    H2 5152   1.217   4.273   2.286 -3.3285  1.0190 -1.0894
 1575TIP3   OH2 5153   4.174   3.336   1.258  0.3704  0.0745 -0.2646
 1575TIP3    H1 5154   4.125   3.417   1.243  1.5763  0.8984  0.2144
 1575TIP3    H2 5155   4.108   3.273   1.286  0.0583  2.1500  3.9851
 1576TIP3   OH2 5156   2.658   0.154   2.380  0.5646  0.5454  0.3476
 1576TIP3    H1 5157   2.633   0.115   2.464 -1.2338  0.5722 -0.1463
 1576TIP3    H2 5158   2.700   0.236   2.403  1.0676  0.0356  1.2705
 1577TIP3   OH2 5159   3.273   3.841   5.297  0.1435 -0.5568  0.0012
 1577TIP3    H1 5160   3.254   3.896   5.221  1.5651  1.1577  0.8255
 1577TIP3    H2 5161   3.326   3.769   5.262  1.2090  0.4847 -0.5901
 1578TIP3   OH2 5162   1.910   3.803   0.728 -0.3426 -0.6299 -0.3261
 1578TIP3    H1 5163   1.852   3.746   0.778  0.4986  0.2994  1.8018
 1578TIP3    H2 5164   1.998   3.771   0.748  0.0483  0.3284 -0.4725
 1579TIP3   OH2 5165   0.210   0.028   2.350 -1.1271  0.1825 -0.0684
 1579TIP3    H1 5166   0.171  -0.021   2.423 -0.1221 -1.0016 -0.3001
 1579TIP3    H2 5167   0.188   0.119   2.368 -3.3676 -0.3789  0.1805
 1580TIP3   OH2 5168   0.509   4.283   0.853  0.3632  0.2236  0.0801
 1580TIP3    H1 5169   0.550   4.271   0.768  1.5204 -2.0450  0.9306
 1580TIP3    H2 5170   0.573   4.333   0.904  1.7389 -2.4489  1.0807
 1581TIP3   OH2 5171   0.423   4.714   0.038  0.4187  0.0747 -0.1425
 1581TIP3    H1 5172   0.390   4.735   0.126 -1.5174 -2.9299 -0.0764
 1581TIP3    H2 5173   0.502   4.662   0.053 -0.6502 -1.5850 -0.1050
 1582TIP3   OH2 5174   5.366   2.481   2.073 -0.3418  0.4630  0.2340
 1582TIP3    H1 5175   5.314   2.466   1.994 -0.5242  0.1708  0.4058
 1582TIP3    H2 5176   5.454   2.501   2.041 -0.4149  0.3424 -0.0431
 1583TIP3   OH2 5177   0.780   0.418   1.817 -0.0025 -0.1413 -0.2594
 1583TIP3    H1 5178   0.740   0.334   1.795 -0.1948  0.1690 -1.1351
 1583TIP3    H2 5179   0.732   0.482   1.764 -0.9991  0.7445  1.6619
 1584TIP3   OH2 5180   2.933   4.263   0.663  0.3798  0.1179  0.2501
 1584TIP3    H1 5181   2.889   4.341   0.628 -1.5543 -1.0780 -0.0298
 1584TIP3    H2 5182   2.863   4.199   0.673  1.9282 -1.5143  0.7155
 1585TIP3   OH2 5183   3.655   5.021   0.214  0.0552  0.4976  0.3622
 1585TIP3    H1 5184   3.712   4.984   0.281 -0.2894 -0.3765  0.1795
 1585TIP3    H2 5185   3.678   5.114   0.211  1.2141  0.2208  0.5351
 1586TIP3   OH2 5186   3.461   3.791   4.954 -0.0263 -0.4028  0.0095
 1586TIP3    H1 5187   3.505   3.874   4.973  0.5793 -0.9322  0.9437
 1586TIP3    H2 5188   3.369   3.806   4.976  0.2541 -0.2787  1.0848
 1587TIP3   OH2 5189   5.443   5.464   1.508  0.4689 -0.0478 -0.1910
 1587TIP3    H1 5190   5.423   5.443   1.417 -1.0263 -3.3991  0.8384
 1587TIP3    H2 5191   5.368   5.430   1.558  1.6874  0.8876  2.3577
 1588TIP3   OH2 5192   1.242   4.621   1.618 -0.6953 -0.2295 -0.3966
 1588TIP3    H1 5193   1.219   4.696   1.564 -0.5175 -0.6720 -1.0874
 1588TIP3    H2 5194   1.322   4.587   1.579 -0.8140 -0.8266 -0.1268
 1589TIP3   OH2 5195   0.636   2.529   1.672 -0.4706 -0.0922 -0.1953
 1589TIP3    H1 5196   0.672   2.559   1.756 -1.3594  2.9501 -0.8269
 1589TIP3    H2 5197   0.563   2.472   1.696 -0.5341  0.5220  1.0976
 1590TIP3   OH2 5198   1.312   5.508   0.804  0.6307 -0.3651 -0.0150
 1590TIP3    H1 5199   1.234   5.539   0.849  0.2775 -1.3295  0.0455
 1590TIP3    H2 5200   1.382   5.565   0.836  0.1806 -0.3068  0.8901
 1591TIP3   OH2 5201   0.228   4.298   1.502 -1.0293  0.2582 -0.3644
 1591TIP3    H1 5202   0.289   4.307   1.575  1.7702  0.3159 -2.5988
 1591TIP3    H2 5203   0.262   4.225   1.451 -2.4327  0.7296 -2.0378
 1592TIP3   OH2 5204   0.065   4.279   3.675  0.0807  0.0093 -0.8140
 1592TIP3    H1 5205   0.050   4.217   3.603 -2.1674 -0.7167  0.2022
 1592TIP3    H2 5206   0.007   4.248   3.745  1.6810  1.1246  1.0570
 1593TIP3   OH2 5207   5.723   4.283   5.276  0.0122  0.5320 -0.1902
 1593TIP3    H1 5208   5.655   4.312   5.215 -0.3112 -0.0649 -0.1140
 1593TIP3    H2 5209   5.702   4.192   5.294  0.8557  0.3385 -0.1866
 1594TIP3   OH2 5210   1.675   4.971   4.503 -0.4305  0.0407 -0.1675
 1594TIP3    H1 5211   1.623   4.898   4.537 -1.9136  0.4943 -1.4104
 1594TIP3    H2 5212   1.749   4.930   4.459  0.3704 -0.6106  1.7499
 1595TIP3   OH2 5213   1.926   3.753   1.575  0.3145  0.0850 -0.0224
 1595TIP3    H1 5214   1.965   3.839   1.559 -0.8046  1.1588  2.6651
 1595TIP3    H2 5215   1.989   3.709   1.632 -0.9446  0.7169  1.9266
 1596TIP3   OH2 5216   4.113   3.107   1.004 -0.1230 -0.5041 -0.2320
 1596TIP3    H1 5217   4.173   3.169   0.961  0.9893 -0.4288  1.3514
 1596TIP3    H2 5218   4.118   3.028   0.951  1.0957 -0.3641 -0.3443
 1597TIP3   OH2 5219   1.437   4.632   5.678  0.7895  0.2728  1.0459
 1597TIP3    H1 5220   1.446   4.727   5.674 -1.5933  0.4924 -0.6906
 1597TIP3    H2 5221   1.346   4.616   5.652  1.2439 -2.4939  1.0216
 1598TIP3   OH2 5222   2.164   5.319   1.800 -0.1480 -0.2877  0.1894
 1598TIP3    H1 5223   2.229   5.381   1.832 -0.6177  0.9267 -1.1805
 1598TIP3    H2 5224   2.089   5.330   1.858  0.3161 -0.6535  0.8667
 1599TIP3   OH2 5225   5.275   5.804   2.166 -0.3054 -0.5974  0.7785
 1599TIP3    H1 5226   5.316   5.890   2.173 -0.8690 -0.2757  0.1966
 1599TIP3    H2 5227   5.347   5.742   2.178  0.3520 -0.0395 -0.2724
 1600TIP3   OH2 5228   2.295   2.202   3.298 -0.5829 -0.3567 -0.2103
 1600TIP3    H1 5229   2.294   2.295   3.321 -1.1369  0.0284 -1.7868
 1600TIP3    H2 5230   2.320   2.158   3.380  0.8304  1.2545  0.2517
 1601TIP3   OH2 5231   1.203   5.356   5.680 -0.0973 -0.6768 -0.2348
 1601TIP3    H1 5232   1.274   5.416   5.702 -1.0541  0.3590  0.1131
 1601TIP3    H2 5233   1.238   5.269   5.698  0.4065 -0.0611  1.9209
 1602TIP3   OH2 5234   2.074   3.527   1.446 -0.0181 -1.0989 -0.1507
 1602TIP3    H1 5235   2.081   3.494   1.536  1.9386  1.3727  0.6399
 1602TIP3    H2 5236   1.992   3.576   1.446  0.7271  0.1830  0.7470
 1603TIP3   OH2 5237   4.346   0.461   1.609 -0.3557  0.7655  0.3498
 1603TIP3    H1 5238   4.341   0.552   1.580 -0.4342  0.9410  0.9097
 1603TIP3    H2 5239   4.418   0.460   1.672 -0.5632  0.5065  0.5869
 1604TIP3   OH2 5240   2.499   1.193   4.096 -0.3112 -0.0425 -0.3988
 1604TIP3    H1 5241   2.581   1.157   4.062  0.2024 -0.0241  0.7943
 1604TIP3    H2 5242   2.522   1.226   4.183 -1.8910 -1.2549  0.4912
 1605TIP3   OH2 5243   4.153   2.847   0.835 -0.0789 -0.0434  0.7742
 1605TIP3    H1 5244   4.145   2.894   0.752 -0.0745  0.1300  0.8709
 1605TIP3    H2 5245   4.063   2.825   0.859  0.0727 -2.0486 -0.3842
 1606TIP3   OH2 5246   2.239   1.500   0.651 -0.4724  0.0216  0.7859
 1606TIP3    H1 5247   2.240   1.424   0.593 -3.0734  0.9364 -0.5447
 1606TIP3    H2 5248   2.318   1.549   0.627 -0.8035 -0.3040 -1.0478
 1607TIP3   OH2 5249   3.773   3.764   0.103  0.6547  0.5764 -0.2276
 1607TIP3    H1 5250   3.754   3.808   0.020 -0.7529 -0.8368 -0.6944
 1607TIP3    H2 5251   3.867   3.778   0.117  0.5987  2.0851 -1.3080
 1608TIP3   OH2 5252   2.435   4.469   0.848 -0.6270 -0.9702  0.0569
 1608TIP3    H1 5253   2.392   4.513   0.775 -0.0876  1.2388  1.0382
 1608TIP3    H2 5254   2.365   4.421   0.892 -1.1727 -1.3475 -1.1914
 1609TIP3   OH2 5255   4.497   5.330   0.198 -0.2484 -0.3186 -0.4435
 1609TIP3    H1 5256   4.521   5.331   0.105 -1.4105 -0.3697 -0.7573
 1609TIP3    H2 5257   4.563   5.384   0.240  0.4039 -0.4567 -1.2762
 1610TIP3   OH2 5258   3.743   5.280   0.222 -0.1900  0.5473 -0.0312
 1610TIP3    H1 5259   3.827   5.237   0.206 -0.6890 -1.2606  1.9135
 1610TIP3    H2 5260   3.749   5.313   0.312 -1.9161 -0.5373  0.5234
 1611TIP3   OH2 5261   2.969   1.011   0.948 -0.4820 -0.0757  0.6268
 1611TIP3    H1 5262   3.059   1.028   0.976 -0.7412  0.3427  1.2126
 1611TIP3    H2 5263   2.951   1.080   0.883  0.0751 -0.9700 -0.4934
 1612TIP3   OH2 5264   1.724   3.181   2.275  1.0735 -0.3321  0.9735
 1612TIP3    H1 5265   1.810   3.225   2.277  0.4143  1.1521 -1.1433
 1612TIP3    H2 5266   1.730   3.120   2.202 -0.2513  1.0652 -0.3307
 1613TIP3   OH2 5267   2.649   4.304   2.321  0.3356 -0.2399  0.3576
 1613TIP3    H1 5268   2.563   4.344   2.308  0.3907 -0.8565 -2.1491
 1613TIP3    H2 5269   2.633   4.210   2.318  0.9675 -0.3761  0.9460
 1614TIP3   OH2 5270   2.037   5.377   5.605  0.1399  0.0471  0.3775
 1614TIP3    H1 5271   2.024   5.439   5.534  0.5439  1.7678  1.7715
 1614TIP3    H2 5272   2.117   5.330   5.581 -0.1298  0.1027 -0.6515
 1615TIP3   OH2 5273   3.622   3.082   4.361 -0.0623  0.0244  0.1334
 1615TIP3    H1 5274   3.716   3.072   4.375 -0.3339 -2.0313  0.7020
 1615TIP3    H2 5275   3.585   3.093   4.448 -0.5445 -1.1615  0.0892
 1616TIP3   OH2 5276   2.843   1.036   4.725 -0.1809  0.1128  0.3309
 1616TIP3    H1 5277   2.782   1.010   4.656  0.9133 -1.0156 -0.2329
 1616TIP3    H2 5278   2.905   0.963   4.731  2.2584  2.0614 -0.4574
 1617TIP3   OH2 5279   2.676   4.956   0.719 -0.3553 -0.2321 -0.0311
 1617TIP3    H1 5280   2.741   4.928   0.654  1.3150  0.7837  1.1687
 1617TIP3    H2 5281   2.593   4.953   0.672  0.9704  1.7329 -2.6297
 1618TIP3   OH2 5282   2.055   4.253   0.177 -0.0679 -0.1428 -0.6512
 1618TIP3    H1 5283   1.965   4.221   0.171  0.1131 -0.6440 -0.7072
 1618TIP3    H2 5284   2.080   4.239   0.268 -0.0795  0.0839 -0.6129
 1619TIP3   OH2 5285   0.180   5.580   2.350  0.3574 -0.2150 -0.0196
 1619TIP3    H1 5286   0.119   5.507   2.336  0.6310 -0.3368 -0.5857
 1619TIP3    H2 5287   0.162   5.640   2.278  1.8994 -0.9276 -1.0270
 1620TIP3   OH2 5288   3.242   4.047   0.898  0.0569 -0.3251  0.4356
 1620TIP3    H1 5289   3.217   4.049   0.990 -1.1786  0.4853  0.0993
 1620TIP3    H2 5290   3.280   3.960   0.885 -0.2006 -0.6161  1.5995
 1621TIP3   OH2 5291   1.219   2.850   3.513  0.0855 -0.8022 -0.3270
 1621TIP3    H1 5292   1.176   2.863   3.598 -2.2436 -0.2985 -1.5344
 1621TIP3    H2 5293   1.296   2.907   3.516 -2.2189  2.4628 -0.0680
 1622TIP3   OH2 5294   3.635   0.296   1.244  0.5108  0.1385  0.2664
 1622TIP3    H1 5295   3.722   0.265   1.270  1.0335 -0.0231 -1.6491
 1622TIP3    H2 5296   3.651   0.384   1.209 -0.4261  1.0267  2.0269
 1623TIP3   OH2 5297   2.610   0.959   1.157 -0.2694 -0.3383  0.2678
 1623TIP3    H1 5298   2.699   0.923   1.156 -0.3532 -0.5365 -0.6976
 1623TIP3    H2 5299   2.554   0.884   1.138 -0.5687 -0.0154 -0.1193
 1624TIP3   OH2 5300   3.548   5.091   1.911  0.2185 -0.3097  0.1649
 1624TIP3    H1 5301   3.542   5.038   1.990 -0.7945  2.3748  1.9830
 1624TIP3    H2 5302   3.494   5.045   1.847 -0.6277 -1.4733  1.6784
 1625TIP3   OH2 5303   3.059   5.865   1.723 -0.0893  0.3274  0.4222
 1625TIP3    H1 5304   3.087   5.941   1.773  0.6643 -0.2273  0.8608
 1625TIP3    H2 5305   3.051   5.897   1.633 -0.9318  1.1986  0.7968
 1626TIP3   OH2 5306   1.486   2.563   0.819  0.0217  0.0539  0.5676
 1626TIP3    H1 5307   1.414   2.531   0.765 -0.5758  1.0830  0.7256
 1626TIP3    H2 5308   1.518   2.640   0.771  2.6234 -1.7912 -0.7584
 1627TIP3   OH2 5309   4.544   5.480   5.730 -0.7825 -0.6637 -0.2578
 1627TIP3    H1 5310   4.485   5.406   5.719 -0.3877 -0.9654 -0.3780
 1627TIP3    H2 5311   4.536   5.530   5.648 -0.3823 -1.0609 -0.5432
 1628TIP3   OH2 5312   2.873   3.042   1.339  0.2664 -0.5710 -0.0595
 1628TIP3    H1 5313   2.952   2.988   1.336  0.1226 -0.7622 -0.3951
 1628TIP3    H2 5314   2.836   3.035   1.251  0.2084  0.0139 -0.0779
 1629TIP3   OH2 5315   4.221   5.036   2.073 -0.1169 -0.6610  0.0172
 1629TIP3    H1 5316   4.302   5.086   2.088 -0.0355 -1.3336  2.0101
 1629TIP3    H2 5317   4.157   5.077   2.132 -1.1475 -0.3559 -1.3045
 1630TIP3   OH2 5318   1.032   5.254   4.772  0.1862 -0.6953  0.1647
 1630TIP3    H1 5319   1.005   5.201   4.847  0.0339 -1.3897 -0.3771
 1630TIP3    H2 5320   1.123   5.229   4.757 -0.0932 -1.3471 -0.5322
 1631TIP3   OH2 5321   2.853   3.577   5.356  0.0362  0.5245 -0.3921
 1631TIP3    H1 5322   2.940   3.604   5.386 -0.3176  1.4781 -0.1896
 1631TIP3    H2 5323   2.870   3.515   5.286  0.8813  0.0868  0.1909
 1632TIP3   OH2 5324   2.960   4.751   0.346  0.3093  1.1798 -0.0621
 1632TIP3    H1 5325   2.878   4.702   0.350  0.1650  1.4318  0.0850
 1632TIP3    H2 5326   2.975   4.766   0.253  0.1062  1.2666 -0.0823
 1633TIP3   OH2 5327   3.815   5.361   0.901  0.4443 -0.0568  0.4009
 1633TIP3    H1 5328   3.839   5.280   0.856 -0.0743  0.2474 -0.4431
 1633TIP3    H2 5329   3.726   5.345   0.932 -0.5295  0.9681 -1.7178
 1634TIP3   OH2 5330   3.001   0.392   1.290  0.9161  0.9677  0.5186
 1634TIP3    H1 5331   2.977   0.432   1.374  1.5260 -1.9971  2.1806
 1634TIP3    H2 5332   2.974   0.457   1.224 -4.5695  1.1725  2.6394
 1635TIP3   OH2 5333   2.880   5.828   1.109 -0.7939  0.0419  0.0212
 1635TIP3    H1 5334   2.972   5.844   1.090 -0.6527  0.4072  0.9591
 1635TIP3    H2 5335   2.880   5.785   1.195 -1.5507  1.3850  0.7261
 1636TIP3   OH2 5336   5.304   3.470   1.403  0.4814 -0.0956 -0.2806
 1636TIP3    H1 5337   5.256   3.493   1.483 -2.7022  0.4584 -2.2688
 1636TIP3    H2 5338   5.381   3.527   1.405 -3.0714  5.0933 -0.9977
 1637TIP3   OH2 5339   3.189   1.417   1.383  0.3124  0.1220  0.2688
 1637TIP3    H1 5340   3.260   1.428   1.446 -0.9803  0.7712  1.6277
 1637TIP3    H2 5341   3.165   1.324   1.389 -0.8878  0.5161  1.9406
 1638TIP3   OH2 5342   4.704   5.692   3.064 -0.1827  0.3798  0.1546
 1638TIP3    H1 5343   4.616   5.702   3.100 -1.0152  0.0703 -1.7353
 1638TIP3    H2 5344   4.732   5.605   3.092 -1.8726 -0.9344 -2.0803
 1639TIP3   OH2 5345   3.997   4.439   5.940  0.2389 -0.1244  0.0229
 1639TIP3    H1 5346   4.037   4.414   5.857 -2.6927 -0.3280 -1.4061
 1639TIP3    H2 5347   4.046   4.516   5.969  1.2115  0.0220 -1.9548
 1640TIP3   OH2 5348   1.445   2.848   1.193  0.3129 -0.2228  0.8278
 1640TIP3    H1 5349   1.368   2.857   1.250 -0.7051 -2.6712 -0.1269
 1640TIP3    H2 5350   1.435   2.762   1.153  1.4515  1.1039 -2.4243
 1641TIP3   OH2 5351   4.208   5.778   0.916  0.4450  0.1836  0.4917
 1641TIP3    H1 5352   4.204   5.713   0.986  1.2343  0.1011  0.4613
 1641TIP3    H2 5353   4.301   5.787   0.896  0.1566 -0.8231 -1.5015
 1642TIP3   OH2 5354   3.207   0.303   1.064 -0.1600  0.1081 -0.0859
 1642TIP3    H1 5355   3.226   0.216   1.100 -0.4253  0.1635  0.1854
 1642TIP3    H2 5356   3.111   0.310   1.068 -0.0570  0.9312  1.0803
 1643TIP3   OH2 5357   5.875   5.070   1.127  0.3886  0.0269 -0.7375
 1643TIP3    H1 5358   5.842   5.025   1.049 -1.6427 -1.0617  0.7043
 1643TIP3    H2 5359   5.925   5.003   1.174 -0.8403 -0.1572  0.3330
 1644TIP3   OH2 5360   4.574   4.752   0.982  0.3346 -0.3740  0.5344
 1644TIP3    H1 5361   4.640   4.778   0.917 -0.6698 -0.4221 -0.5282
 1644TIP3    H2 5362   4.589   4.811   1.056  1.5199 -0.3410  0.2822
 1645TIP3   OH2 5363   4.239   4.855   2.667 -0.6073 -0.2917 -0.6623
 1645TIP3    H1 5364   4.216   4.769   2.633  0.9451 -1.0792  0.2418
 1645TIP3    H2 5365   4.307   4.887   2.606  1.0973 -1.0743  0.7768
 1646TIP3   OH2 5366   3.331   5.901   0.885  0.0091 -0.3505 -0.0797
 1646TIP3    H1 5367   3.340   5.806   0.883  2.8789 -0.1238 -0.7545
 1646TIP3    H2 5368   3.370   5.927   0.968  1.6487  0.4078 -1.0632
 1647TIP3   OH2 5369   1.693   3.474   5.680  0.1367  0.2244  0.2636
 1647TIP3    H1 5370   1.779   3.516   5.687 -0.5038  1.7249 -0.5819
 1647TIP3    H2 5371   1.655   3.483   5.768 -0.1038  1.7210  0.0288
 1648TIP3   OH2 5372   1.337   0.452   0.352 -0.4009 -0.0874  0.1936
 1648TIP3    H1 5373   1.343   0.430   0.259 -0.9282 -1.3055  0.4332
 1648TIP3    H2 5374   1.244   0.453   0.371 -0.3437  1.3424  0.4542
 1649TIP3   OH2 5375   2.676   0.492   0.396 -0.2271 -0.2638  0.8037
 1649TIP3    H1 5376   2.666   0.433   0.470 -2.7076 -0.4823  0.3540
 1649TIP3    H2 5377   2.638   0.444   0.322  2.0712  0.0024 -0.5735
 1650TIP3   OH2 5378   3.892   4.045   0.635 -0.3634 -0.1307 -0.1144
 1650TIP3    H1 5379   3.960   4.113   0.630 -2.4835  2.1862  0.9289
 1650TIP3    H2 5380   3.858   4.039   0.546 -0.0852  0.1036 -0.2409
 1651TIP3   OH2 5381   2.546   5.433   2.021  0.1170 -0.4220  0.5146
 1651TIP3    H1 5382   2.620   5.374   2.035  0.5052  0.5149  2.5054
 1651TIP3    H2 5383   2.581   5.520   2.035 -1.2980  0.0439  1.2129
 1652TIP3   OH2 5384   5.863   1.055   2.666 -0.1897 -0.0095  0.0799
 1652TIP3    H1 5385   5.853   1.010   2.582  2.0665  0.5219 -0.5261
 1652TIP3    H2 5386   5.786   1.110   2.674  0.7435  1.8662 -2.8993
 1653TIP3   OH2 5387   3.115   3.260   2.086 -0.0145  0.0169  0.5786
 1653TIP3    H1 5388   3.041   3.300   2.131 -2.9929 -3.1303 -1.2192
 1653TIP3    H2 5389   3.128   3.315   2.009 -1.9303 -0.5409 -0.1865
 1654TIP3   OH2 5390   4.633   1.381   1.376  0.7958 -0.0390  0.5473
 1654TIP3    H1 5391   4.693   1.320   1.335 -0.7917 -0.5938 -1.0038
 1654TIP3    H2 5392   4.559   1.327   1.405 -1.1806  1.2232 -1.8995
 1655TIP3   OH2 5393   2.170   6.041   5.837  0.1691 -0.6715  0.1381
 1655TIP3    H1 5394   2.152   6.124   5.793 -0.4576 -0.7487  0.2427
 1655TIP3    H2 5395   2.264   6.042   5.853 -0.1091  0.8986  1.8790
 1656TIP3   OH2 5396   3.581   3.564   4.878  0.1187 -0.3137 -0.3674
 1656TIP3    H1 5397   3.653   3.576   4.817 -0.6350 -0.0395 -1.2226
 1656TIP3    H2 5398   3.553   3.653   4.900 -0.5350 -0.4166 -0.7514
 1657TIP3   OH2 5399   3.556   3.588   0.155 -0.0058  0.0915  0.0812
 1657TIP3    H1 5400   3.623   3.654   0.135 -0.7573  0.8072 -0.0838
 1657TIP3    H2 5401   3.552   3.533   0.077  3.2784 -2.4601  1.5942
 1658TIP3   OH2 5402   1.804   2.091   5.174  0.1906 -0.2317 -0.9454
 1658TIP3    H1 5403   1.733   2.115   5.115 -0.0234 -0.7634 -0.9076
 1658TIP3    H2 5404   1.771   2.015   5.222  0.4742  0.0126 -0.3504
 1659TIP3   OH2 5405   0.276   4.497   2.239  0.1098  0.1536  0.0251
 1659TIP3    H1 5406   0.307   4.488   2.149 -1.2402  2.8810 -0.7562
 1659TIP3    H2 5407   0.286   4.409   2.276  3.8655 -0.2504 -1.7123
 1660TIP3   OH2 5408   0.874   2.139   2.188 -0.6719 -0.0867  0.0921
 1660TIP3    H1 5409   0.951   2.172   2.234 -1.0868 -0.6698  1.2242
 1660TIP3    H2 5410   0.909   2.084   2.118 -0.0352  0.8246 -0.3125
 1661TIP3   OH2 5411   3.201   5.461   0.370  0.3624  0.4153  0.0526
 1661TIP3    H1 5412   3.295   5.470   0.381  0.4030  2.1804 -1.6331
 1661TIP3    H2 5413   3.166   5.463   0.460  1.7315  2.0489  0.5572
 1662TIP3   OH2 5414   2.863   4.302   0.977 -0.5403  0.0417 -0.3468
 1662TIP3    H1 5415   2.941   4.310   0.923 -2.3570  1.7569 -2.8581
 1662TIP3    H2 5416   2.861   4.210   1.005  0.6824 -0.7716 -2.8630
 1663TIP3   OH2 5417   3.493   3.998   5.881 -0.3120 -0.2309 -0.3805
 1663TIP3    H1 5418   3.573   4.046   5.861  0.0812  0.1772  1.9591
 1663TIP3    H2 5419   3.523   3.912   5.911 -0.7242 -0.1337  0.3510
 1664TIP3   OH2 5420   5.811   4.087   5.020 -0.3764 -0.1631  0.0340
 1664TIP3    H1 5421   5.774   4.081   5.108 -1.7721  0.4709 -0.4890
 1664TIP3    H2 5422   5.746   4.136   4.970  1.4910  1.5804 -0.7613
 1665TIP3   OH2 5423   1.322   4.884   5.699 -0.4043 -0.5834  0.6366
 1665TIP3    H1 5424   1.333   4.948   5.769  0.7539  1.2895 -1.2066
 1665TIP3    H2 5425   1.232   4.852   5.710 -0.3845  0.0192  2.6791
 1666TIP3   OH2 5426   2.627   3.040   3.930  0.1683  0.1674 -0.3956
 1666TIP3    H1 5427   2.544   3.067   3.970  0.7972  0.7685  0.5444
 1666TIP3    H2 5428   2.637   3.097   3.854  0.1530  0.7097  0.0049
 1667TIP3   OH2 5429   2.280   5.456   0.660 -0.4961  0.1199 -0.0259
 1667TIP3    H1 5430   2.296   5.368   0.696 -0.4126 -0.3413 -1.1779
 1667TIP3    H2 5431   2.360   5.476   0.610 -0.4672  0.9034  0.3313
 1668TIP3   OH2 5432   1.047   2.768   1.676 -0.1510 -0.1985  0.3277
 1668TIP3    H1 5433   1.116   2.706   1.654  1.2762  1.3973  0.1848
 1668TIP3    H2 5434   1.092   2.838   1.724 -2.0460 -0.2154  2.2102
 1669TIP3   OH2 5435   2.545   2.206   5.914 -0.1242 -0.1987 -0.2681
 1669TIP3    H1 5436   2.470   2.149   5.898 -1.5495  1.6370 -0.1827
 1669TIP3    H2 5437   2.598   2.158   5.978 -2.1833 -0.6650  1.1172
 1670TIP3   OH2 5438   1.531   3.692   0.766 -0.0768  0.4375  0.2781
 1670TIP3    H1 5439   1.485   3.613   0.795  0.5230 -0.0884 -0.2019
 1670TIP3    H2 5440   1.484   3.719   0.687  0.8733 -0.5090 -0.6205
 1671TIP3   OH2 5441   3.681   3.085   0.055  0.2801  0.3838 -0.5236
 1671TIP3    H1 5442   3.677   3.178   0.079  0.1160  0.2455 -0.0103
 1671TIP3    H2 5443   3.725   3.043   0.129  1.9587  0.3160 -1.5432
 1672TIP3   OH2 5444   0.589   4.116   2.385  0.2090  0.0338 -0.0761
 1672TIP3    H1 5445   0.521   4.176   2.354 -1.0014 -0.4873  1.5176
 1672TIP3    H2 5446   0.599   4.052   2.314  0.5846  1.3449 -1.2295
 1673TIP3   OH2 5447   1.926   3.620   0.092  0.3171 -0.1513  0.4711
 1673TIP3    H1 5448   1.943   3.611  -0.001 -0.8777  1.0906  0.1092
 1673TIP3    H2 5449   1.926   3.530   0.126 -1.8579 -0.8185 -1.2083
 1674TIP3   OH2 5450   1.361   3.185   4.544 -0.4293  0.0758  0.0250
 1674TIP3    H1 5451   1.425   3.153   4.607  0.7140  2.5946  0.2106
 1674TIP3    H2 5452   1.283   3.204   4.596  0.1827  1.2184  0.5368
 1675TIP3   OH2 5453   1.712   4.789   1.914 -0.2415  0.1668 -0.1067
 1675TIP3    H1 5454   1.700   4.851   1.843  1.9295  0.6860 -0.0715
 1675TIP3    H2 5455   1.625   4.779   1.953 -1.0256  1.5105 -1.4692
 1676TIP3   OH2 5456   2.242   3.150   5.621  0.1045  0.2140 -0.0487
 1676TIP3    H1 5457   2.212   3.161   5.531 -0.1173  3.2794  0.3371
 1676TIP3    H2 5458   2.178   3.198   5.674  0.4353 -1.2345  1.7246
 1677TIP3   OH2 5459   3.686   2.656   5.647 -0.0202 -0.1782 -0.0948
 1677TIP3    H1 5460   3.711   2.625   5.734  0.5165  0.3309 -0.0673
 1677TIP3    H2 5461   3.669   2.576   5.598  0.2501 -0.4884  0.3095
 1678TIP3   OH2 5462   1.665   4.320   1.779  0.0646 -0.3602 -0.0625
 1678TIP3    H1 5463   1.654   4.277   1.694  0.4098 -0.0338 -0.2766
 1678TIP3    H2 5464   1.596   4.385   1.782  0.5721  0.2023 -0.4614
 1679TIP3   OH2 5465   3.413   4.198   0.749  0.1491  0.0059 -0.1854
 1679TIP3    H1 5466   3.444   4.148   0.673 -0.7424 -0.3742 -0.2993
 1679TIP3    H2 5467   3.327   4.161   0.769 -0.1623  0.9472  0.2371
 1680TIP3   OH2 5468   2.009   4.173   1.317  0.1360 -0.1891 -0.0638
 1680TIP3    H1 5469   2.093   4.217   1.299  1.2226 -1.8846  0.6821
 1680TIP3    H2 5470   1.943   4.236   1.290  1.6564  0.3882 -2.6782
 1681TIP3   OH2 5471   0.440   3.787   0.544  0.3413  0.3810  0.1616
 1681TIP3    H1 5472   0.398   3.737   0.615  1.2024 -3.1898 -1.7912
 1681TIP3    H2 5473   0.526   3.811   0.579 -0.1799  0.7861  1.2014
 1682TIP3   OH2 5474   1.534   4.411   0.674  0.1515  0.3068 -0.9648
 1682TIP3    H1 5475   1.594   4.478   0.707 -1.0603  1.4658 -1.0606
 1682TIP3    H2 5476   1.544   4.337   0.734  0.1295  1.2795  0.2475
 1683TIP3   OH2 5477   4.598   5.553   1.371 -0.5317  0.1355  0.0449
 1683TIP3    H1 5478   4.535   5.484   1.354 -1.5617  1.1933 -0.5413
 1683TIP3    H2 5479   4.684   5.514   1.352 -1.1416 -0.7996 -0.8011
 1684TIP3   OH2 5480   1.940   2.991   1.856 -0.0319 -0.4401  0.1989
 1684TIP3    H1 5481   1.977   2.941   1.784 -1.2023 -0.9189 -0.0708
 1684TIP3    H2 5482   2.001   3.064   1.867 -1.0206  0.9180 -2.7675
 1685TIP3   OH2 5483   0.550   4.089   1.822 -0.0593 -0.0632 -0.0500
 1685TIP3    H1 5484   0.634   4.052   1.793  0.5613 -0.1817  1.8087
 1685TIP3    H2 5485   0.547   4.175   1.780  0.7829 -0.2386 -0.4999
 1686TIP3   OH2 5486   2.681   1.855   0.040  0.6361  0.3459  0.1714
 1686TIP3    H1 5487   2.627   1.775   0.044  2.0775 -0.7562 -1.5483
 1686TIP3    H2 5488   2.649   1.909   0.113 -1.0590 -1.3573  0.7451
 1687TIP3   OH2 5489   1.811   4.660   4.131 -0.1373 -0.2826  0.4263
 1687TIP3    H1 5490   1.784   4.624   4.046 -1.0510  1.4086 -0.0262
 1687TIP3    H2 5491   1.772   4.747   4.133  2.3139  0.8347  1.3290
 1688TIP3   OH2 5492   4.763   4.750   2.290  0.2295  0.3671  0.2154
 1688TIP3    H1 5493   4.760   4.843   2.315  2.5388  0.8131 -1.1151
 1688TIP3    H2 5494   4.806   4.707   2.364  0.0641  0.4983  0.3899
 1689TIP3   OH2 5495   5.032   4.855   0.872  0.5656  0.0289 -0.6810
 1689TIP3    H1 5496   5.031   4.951   0.870 -1.5751  0.0312 -0.3189
 1689TIP3    H2 5497   5.111   4.831   0.823  0.5348  1.9446 -1.7182
 1690TIP3   OH2 5498   5.069   4.293   0.181 -0.0315 -0.3333 -0.1259
 1690TIP3    H1 5499   5.052   4.254   0.095  1.2708  0.7879 -0.9086
 1690TIP3    H2 5500   5.127   4.367   0.162 -0.6861  0.6215  1.5883
 1691TIP3   OH2 5501   2.526   5.616   5.455  0.1530  0.1774 -0.1374
 1691TIP3    H1 5502   2.570   5.700   5.439  1.1113  0.2977  2.7032
 1691TIP3    H2 5503   2.596   5.551   5.445 -0.5278 -0.2561 -2.0706
 1692TIP3   OH2 5504   1.872   5.317   4.970  0.8544 -0.2024 -0.6391
 1692TIP3    H1 5505   1.968   5.320   4.981  0.7584 -0.0979  0.2533
 1692TIP3    H2 5506   1.839   5.307   5.059 -0.0530  1.7722 -0.7324
 1693TIP3   OH2 5507   4.731   1.188   5.387  0.4935 -0.8970  0.5368
 1693TIP3    H1 5508   4.641   1.157   5.383  0.1149  0.2200  0.2736
 1693TIP3    H2 5509   4.724   1.280   5.413  1.5452 -0.7798  0.4337
 1694TIP3   OH2 5510   1.554   3.481   0.329 -0.1084 -0.3152 -0.3206
 1694TIP3    H1 5511   1.588   3.393   0.346  2.0080  0.4823 -0.3277
 1694TIP3    H2 5512   1.529   3.480   0.237 -0.6186 -1.0725 -0.1803
 1695TIP3   OH2 5513   1.254   0.999   5.979 -0.3239  0.6478  0.1933
 1695TIP3    H1 5514   1.324   1.060   5.999  1.1405 -1.0024  0.1788
 1695TIP3    H2 5515   1.213   0.980   6.063  0.6008 -0.0099  0.4955
 1696TIP3   OH2 5516   2.821   3.703   3.945 -1.0531  0.4262  0.2342
 1696TIP3    H1 5517   2.783   3.684   4.031  0.8358 -1.1492  0.7602
 1696TIP3    H2 5518   2.782   3.637   3.887 -0.3103 -0.2176  0.4566
 1697TIP3   OH2 5519   3.465   0.525   1.696  0.4096 -0.0641 -0.2544
 1697TIP3    H1 5520   3.426   0.441   1.719  0.7231  0.6932  3.3273
 1697TIP3    H2 5521   3.517   0.506   1.617 -0.6705 -2.8760 -0.3515
 1698TIP3   OH2 5522   4.776   5.296   2.881 -0.5242 -0.1560  0.0683
 1698TIP3    H1 5523   4.841   5.349   2.834 -1.2478  1.4289  0.8076
 1698TIP3    H2 5524   4.787   5.207   2.846 -0.0037  0.6796 -1.9772
 1699TIP3   OH2 5525   2.328   0.552   5.354  0.1727  0.4895 -0.6671
 1699TIP3    H1 5526   2.416   0.584   5.334 -0.1476  0.4430 -2.2099
 1699TIP3    H2 5527   2.274   0.630   5.358  0.1263  0.4517 -0.5553
 1700TIP3   OH2 5528   2.461   4.005   1.520  0.2380  0.2664  0.5399
 1700TIP3    H1 5529   2.383   4.058   1.500  0.5439  0.5030 -0.0397
 1700TIP3    H2 5530   2.442   3.966   1.606  0.8616  2.9688  1.9787
 1701TIP3   OH2 5531   3.325   5.613   5.932 -0.5440  0.0513 -0.1255
 1701TIP3    H1 5532   3.240   5.640   5.896 -1.2822 -1.2935  0.5461
 1701TIP3    H2 5533   3.346   5.681   5.996 -1.7032 -0.2157  0.5623
 1702TIP3   OH2 5534   3.653   6.065   0.473 -0.3321  0.3453  0.1513
 1702TIP3    H1 5535   3.580   6.034   0.527 -0.8032 -0.6375 -1.0373
 1702TIP3    H2 5536   3.612   6.097   0.393  0.6188 -1.3626 -1.0448
 1703TIP3   OH2 5537   4.858   5.775   1.271  0.3790  0.2963 -0.4672
 1703TIP3    H1 5538   4.914   5.712   1.225  1.4014  0.6425  0.2604
 1703TIP3    H2 5539   4.920   5.825   1.324 -0.5705  1.1359 -0.1619
 1704TIP3   OH2 5540   3.488   4.554   0.222 -0.0524  0.2081  0.1639
 1704TIP3    H1 5541   3.504   4.553   0.316  2.0331  2.0223 -0.1380
 1704TIP3    H2 5542   3.456   4.643   0.204 -1.5202 -0.4632 -0.6872
 1705TIP3   OH2 5543   2.279   5.610   4.650 -0.6160 -0.2503  0.4991
 1705TIP3    H1 5544   2.342   5.625   4.720  0.5198  2.3269 -1.0123
 1705TIP3    H2 5545   2.242   5.696   4.631 -0.8160 -0.8512 -2.1052
 1706TIP3   OH2 5546   4.610   5.643   5.968 -0.4428  0.4750 -0.3690
 1706TIP3    H1 5547   4.627   5.570   5.910 -1.5212  0.8962 -1.2283
 1706TIP3    H2 5548   4.653   5.718   5.927 -0.9651  0.7157 -0.4864
 1707TIP3   OH2 5549   4.584   4.075   0.754 -0.0327  0.5806 -0.0847
 1707TIP3    H1 5550   4.566   4.091   0.846 -0.1881  1.9617 -0.3407
 1707TIP3    H2 5551   4.637   4.149   0.726  0.4830 -0.1085 -0.9727
 1708TIP3   OH2 5552   2.405   0.351   5.537 -0.3588  0.8381  0.1822
 1708TIP3    H1 5553   2.396   0.422   5.473 -0.9412 -1.3390 -2.1853
 1708TIP3    H2 5554   2.324   0.356   5.588 -1.4227  0.4631 -1.4441
 1709TIP3   OH2 5555   3.582   2.575   0.670 -0.3271  0.3450 -0.0859
 1709TIP3    H1 5556   3.572   2.518   0.746 -0.7746 -0.8630 -1.0397
 1709TIP3    H2 5557   3.544   2.526   0.597 -1.7390  2.3017 -0.7312
 1710TIP3   OH2 5558   3.804   3.003   2.229 -0.1887 -0.2935  0.2908
 1710TIP3    H1 5559   3.716   2.973   2.254 -0.8175  1.2934  0.0341
 1710TIP3    H2 5560   3.837   2.933   2.172 -1.0015 -1.2374  0.9520
 1711TIP3   OH2 5561   2.729   4.649   5.883  0.3431 -0.2750  0.0660
 1711TIP3    H1 5562   2.748   4.680   5.794  0.9371  0.9698  0.6152
 1711TIP3    H2 5563   2.764   4.717   5.940 -1.9810  0.0231  1.2112
 1712TIP3   OH2 5564   2.630   0.207   5.504 -0.1682  0.8535 -0.3037
 1712TIP3    H1 5565   2.556   0.266   5.519 -0.6887  0.4296 -1.1486
 1712TIP3    H2 5566   2.604   0.125   5.546 -0.2580  0.6467 -0.7654
 1713TIP3   OH2 5567   4.386   5.362   5.052  0.5653  0.3604  0.4954
 1713TIP3    H1 5568   4.292   5.382   5.052  0.4076 -0.1577 -2.4410
 1713TIP3    H2 5569   4.390   5.267   5.042  1.3919  0.5523 -1.1588
 1714TIP3   OH2 5570   2.319   0.253   2.546  0.1736 -0.3612  0.3221
 1714TIP3    H1 5571   2.300   0.317   2.477  2.1249  1.2104  1.1726
 1714TIP3    H2 5572   2.379   0.191   2.506 -0.0155 -0.4282  0.1382
 1715TIP3   OH2 5573   3.556   3.752   2.597  0.1045  0.1750  0.2537
 1715TIP3    H1 5574   3.569   3.663   2.566  0.4244  0.0426  0.7518
 1715TIP3    H2 5575   3.583   3.807   2.524 -0.3656 -0.1420 -0.1522
 1716TIP3   OH2 5576   0.911   0.565   4.548  0.4337  0.2517 -0.1171
 1716TIP3    H1 5577   0.855   0.521   4.612 -0.2848  0.5813 -0.5032
 1716TIP3    H2 5578   0.900   0.658   4.567  0.5351  0.3350 -0.4576
 1717TIP3   OH2 5579   5.793   4.365   5.531 -0.2652 -0.0190 -0.2291
 1717TIP3    H1 5580   5.710   4.357   5.577 -0.4339 -1.1846 -0.7224
 1717TIP3    H2 5581   5.774   4.341   5.440  0.7661 -1.1576 -0.1673
 1718TIP3   OH2 5582   2.535   3.277   5.999  0.6014  0.1563  1.1222
 1718TIP3    H1 5583   2.538   3.184   6.023 -0.3270 -0.6479 -1.6860
 1718TIP3    H2 5584   2.475   3.316   6.062 -0.2312 -1.4759  1.3602
 1719TIP3   OH2 5585   3.924   4.454   4.624 -0.7235 -0.1023 -0.0443
 1719TIP3    H1 5586   3.890   4.476   4.711 -0.2493  0.3267  0.0369
 1719TIP3    H2 5587   3.897   4.364   4.609 -1.9892  0.2669 -0.0228
 1720TIP3   OH2 5588   3.059   4.725   0.819 -0.2009  0.4535 -0.1980
 1720TIP3    H1 5589   3.057   4.659   0.889  0.6767  1.1182  0.4686
 1720TIP3    H2 5590   3.149   4.756   0.819 -0.2890  0.7164 -1.3990
 1721TIP3   OH2 5591   2.690   5.097   1.164 -0.2105  0.2549 -0.2274
 1721TIP3    H1 5592   2.606   5.103   1.208  0.0907 -2.0292  0.7250
 1721TIP3    H2 5593   2.707   5.003   1.156  2.6296  0.6501  0.3388
 1722TIP3   OH2 5594   2.609   4.389   1.448 -0.2925 -0.0404 -0.2334
 1722TIP3    H1 5595   2.679   4.325   1.453  0.3351  0.6702  0.1030
 1722TIP3    H2 5596   2.622   4.434   1.364 -0.7154 -0.3276 -0.4573
 1723TIP3   OH2 5597   4.866   0.931   5.060 -0.3233 -0.0609  0.5036
 1723TIP3    H1 5598   4.771   0.934   5.072 -0.2419 -1.1399  1.4797
 1723TIP3    H2 5599   4.896   0.865   5.123  0.7091 -2.1515 -2.0671
 1724TIP3   OH2 5600   3.633   4.078   0.973  0.1044  0.3217 -0.1617
 1724TIP3    H1 5601   3.549   4.091   0.929  0.1765 -0.7156 -0.6392
 1724TIP3    H2 5602   3.689   4.038   0.906  1.0721  1.2623  0.0722
 1725TIP3   OH2 5603   1.736   5.602   0.097 -0.1620  0.1029  0.4955
 1725TIP3    H1 5604   1.784   5.539   0.044 -1.4144 -1.5208  1.2264
 1725TIP3    H2 5605   1.793   5.679   0.101  1.8036 -1.3095  0.3292
 1726TIP3   OH2 5606   2.697   3.523   1.563 -0.1544  0.4285 -0.2205
 1726TIP3    H1 5607   2.742   3.546   1.482  0.5359 -0.3261 -0.0573
 1726TIP3    H2 5608   2.714   3.429   1.575  0.4469  0.6970  1.2174
 1727TIP3   OH2 5609   2.339   5.614   5.697 -0.3248 -0.1203  0.6309
 1727TIP3    H1 5610   2.375   5.555   5.764 -0.0701  0.0660  0.6625
 1727TIP3    H2 5611   2.383   5.588   5.616  1.9969  1.9310  1.1822
 1728TIP3   OH2 5612   1.582   5.125   2.062  0.2683 -0.4444 -0.4157
 1728TIP3    H1 5613   1.647   5.065   2.098  1.8101  1.4446 -0.0028
 1728TIP3    H2 5614   1.613   5.144   1.974  0.6461  0.9501  0.0009
 1729TIP3   OH2 5615   3.045   4.613   5.984 -0.5124 -0.5180 -0.9951
 1729TIP3    H1 5616   3.037   4.529   6.028 -1.9026 -0.5649 -1.3087
 1729TIP3    H2 5617   2.997   4.602   5.901  1.2282 -0.1270 -2.0860
 1730TIP3   OH2 5618   4.063   4.563   1.077  0.3793  0.4090 -0.0353
 1730TIP3    H1 5619   3.987   4.619   1.062  1.1331  0.9820 -1.7754
 1730TIP3    H2 5620   4.138   4.614   1.046  1.2545 -0.9520 -0.2226
 1731TIP3   OH2 5621   5.914   5.473   2.160 -0.2446  0.0297  0.1876
 1731TIP3    H1 5622   5.877   5.400   2.110  1.3291 -0.4927 -0.2377
 1731TIP3    H2 5623   6.003   5.484   2.125  0.0154  1.2511  1.1911
 1732TIP3   OH2 5624   4.696   5.511   0.295 -0.4192  0.4100  0.4064
 1732TIP3    H1 5625   4.736   5.532   0.210 -1.0437  0.4896  0.1225
 1732TIP3    H2 5626   4.680   5.596   0.335 -1.4119  0.4318 -0.0133
 1733TIP3   OH2 5627   3.413   4.637   1.121  0.0930  0.2119 -0.2044
 1733TIP3    H1 5628   3.408   4.548   1.155 -0.9112  0.6302  0.7851
 1733TIP3    H2 5629   3.507   4.654   1.111  0.2783 -1.1059 -0.8248
 1734TIP3   OH2 5630   2.800   3.451   0.728 -0.3222 -0.3613 -0.0575
 1734TIP3    H1 5631   2.831   3.526   0.779 -0.6268  0.0473 -0.4768
 1734TIP3    H2 5632   2.762   3.393   0.793 -2.4728  1.0326 -0.0285
 1735TIP3   OH2 5633   3.596   0.683   2.429 -0.5097  0.1787  0.4221
 1735TIP3    H1 5634   3.512   0.682   2.383 -0.6804  1.7648  0.6633
 1735TIP3    H2 5635   3.660   0.654   2.364 -0.9629  0.9612 -0.3873
 1736TIP3   OH2 5636   3.403   1.479   1.545  0.0605  0.1854  0.2553
 1736TIP3    H1 5637   3.447   1.557   1.579  0.9917 -0.2741  0.1156
 1736TIP3    H2 5638   3.451   1.406   1.583 -0.7605 -0.3282  0.3241
 1737TIP3   OH2 5639   4.699   4.530   1.194  0.1288 -0.0776 -0.1347
 1737TIP3    H1 5640   4.693   4.507   1.287  3.8969  0.6187  0.3544
 1737TIP3    H2 5641   4.635   4.474   1.151 -1.1866 -0.9026  2.7914
 1738TIP3   OH2 5642   3.709   3.286   3.097 -0.0325  0.9829 -0.0360
 1738TIP3    H1 5643   3.733   3.217   3.035  1.3735  1.9760 -0.6276
 1738TIP3    H2 5644   3.624   3.318   3.065 -0.2566  0.1676 -0.2875
 1739TIP3   OH2 5645   3.382   5.748   1.829 -0.8991  0.4857 -0.1320
 1739TIP3    H1 5646   3.410   5.679   1.889 -1.5743 -0.1077 -0.4822
 1739TIP3    H2 5647   3.307   5.789   1.873 -0.1785  1.3485  0.3114
 1740TIP3   OH2 5648   1.898   6.040   5.945  0.4190 -0.1440  0.2632
 1740TIP3    H1 5649   1.910   5.972   6.012  0.3256 -0.4832 -0.0626
 1740TIP3    H2 5650   1.940   6.003   5.866  1.9196  0.9032  0.5453
 1741TIP3   OH2 5651   2.383   3.297   0.921 -0.2616 -0.8168  0.2904
 1741TIP3    H1 5652   2.351   3.213   0.886 -1.1990  0.0497 -0.9946
 1741TIP3    H2 5653   2.358   3.361   0.855 -1.3962  0.7757  2.1991
 1742TIP3   OH2 5654   3.115   4.260   4.204 -0.6603  0.7844  0.2209
 1742TIP3    H1 5655   3.113   4.232   4.112 -2.8716  0.7828  0.2273
 1742TIP3    H2 5656   3.158   4.346   4.202 -0.1285  0.5078 -0.7301
 1743TIP3   OH2 5657   1.088   2.799   0.733 -0.1707 -0.3737  0.1405
 1743TIP3    H1 5658   1.158   2.841   0.684 -1.1323 -0.3998 -1.2697
 1743TIP3    H2 5659   1.035   2.871   0.768 -0.5563 -0.3785 -0.4306
 1744TIP3   OH2 5660   3.490   2.747   1.369 -0.0279 -0.2942  0.1615
 1744TIP3    H1 5661   3.482   2.835   1.406 -0.2571 -0.6608  1.0145
 1744TIP3    H2 5662   3.431   2.746   1.294  0.5473  0.5142 -0.3059
 1745TIP3   OH2 5663   5.335   3.817   5.361  0.1658 -0.1619 -0.2303
 1745TIP3    H1 5664   5.329   3.901   5.314 -0.4827  0.8086  1.5424
 1745TIP3    H2 5665   5.294   3.754   5.303 -2.9480  1.4967  0.1017
 1746TIP3   OH2 5666   2.618   3.225   1.856  0.1557 -0.3444  0.4642
 1746TIP3    H1 5667   2.601   3.319   1.855  0.2786 -0.3243 -0.1085
 1746TIP3    H2 5668   2.606   3.199   1.948  1.5337  0.4833  0.8808
 1747TIP3   OH2 5669   5.594   1.327   0.220 -0.0876 -0.2256 -0.3529
 1747TIP3    H1 5670   5.578   1.318   0.314 -0.1398  0.6465 -0.2727
 1747TIP3    H2 5671   5.522   1.280   0.178  0.3706 -1.2939  0.0472
 1748TIP3   OH2 5672   4.047   5.298   1.734 -0.1722 -0.8945  0.6564
 1748TIP3    H1 5673   4.118   5.234   1.735 -0.0315 -0.7535 -0.0541
 1748TIP3    H2 5674   3.998   5.282   1.815  0.3688 -1.3293  0.8932
 1749TIP3   OH2 5675   0.010   0.644   4.184  0.0718  0.6144 -0.3634
 1749TIP3    H1 5676   0.090   0.695   4.167  0.9323 -0.6844 -0.2730
 1749TIP3    H2 5677  -0.011   0.602   4.101  0.2703 -0.1435 -0.0331
 1750TIP3   OH2 5678   3.652   5.587   0.664  0.3705  0.1112  0.2935
 1750TIP3    H1 5679   3.662   5.665   0.610  2.1771 -0.9497 -0.9664
 1750TIP3    H2 5680   3.714   5.599   0.736  1.0199 -0.3821 -0.1792
 1751TIP3   OH2 5681   0.535   4.258   0.577  0.0668 -0.4909  0.4520
 1751TIP3    H1 5682   0.611   4.225   0.529  0.2575 -0.7035  0.8923
 1751TIP3    H2 5683   0.462   4.246   0.517  0.8442  2.7150 -1.2450
 1752TIP3   OH2 5684   1.343   3.400   5.491  0.1545  0.0383  0.1096
 1752TIP3    H1 5685   1.318   3.487   5.523  1.0173  0.6714 -0.9149
 1752TIP3    H2 5686   1.260   3.357   5.471 -0.3246  0.2221  1.6493
 1753TIP3   OH2 5687   5.034   5.252   6.010 -0.3631  0.0649  0.4010
 1753TIP3    H1 5688   4.973   5.299   6.067  0.0868  0.5482  0.4840
 1753TIP3    H2 5689   5.120   5.285   6.035 -0.1729  0.3468 -0.6317
 1754TIP3   OH2 5690   2.648   0.630   1.662 -0.2064  0.4525  0.2577
 1754TIP3    H1 5691   2.609   0.716   1.652 -1.2848 -0.1106 -0.5025
 1754TIP3    H2 5692   2.689   0.612   1.577  2.4524  1.3683  1.2704
 1755TIP3   OH2 5693   2.246   3.994   1.275  0.3820 -0.5355  0.0921
 1755TIP3    H1 5694   2.286   3.967   1.192  1.5541  0.8422  0.1928
 1755TIP3    H2 5695   2.170   4.045   1.250 -1.1596 -2.8203 -0.1015
 1756TIP3   OH2 5696   4.273   2.876   4.056 -0.1255 -0.0004 -0.0168
 1756TIP3    H1 5697   4.327   2.797   4.047 -1.2457 -0.7069 -0.6105
 1756TIP3    H2 5698   4.336   2.948   4.058  0.7429 -0.6699 -2.4608
 1757TIP3   OH2 5699   4.430   5.733   4.563  0.1745  0.0564  0.2478
 1757TIP3    H1 5700   4.430   5.818   4.519 -1.7559 -0.3131 -0.5366
 1757TIP3    H2 5701   4.416   5.755   4.656  3.0325  0.7620  0.5488
 1758TIP3   OH2 5702   2.310   0.418   5.935  0.1805  0.5738 -0.4000
 1758TIP3    H1 5703   2.277   0.373   5.856 -0.6426  2.2684 -1.0487
 1758TIP3    H2 5704   2.316   0.510   5.909  0.9504  0.9793  1.1950
 1759TIP3   OH2 5705   3.109   5.800   2.595  0.0076  0.0523 -0.5398
 1759TIP3    H1 5706   3.117   5.800   2.690  0.2163 -0.4438 -0.5543
 1759TIP3    H2 5707   3.090   5.891   2.572 -2.4523 -0.2435  0.1928
 1760TIP3   OH2 5708   4.260   6.009   0.087 -0.3616  0.2361  0.2131
 1760TIP3    H1 5709   4.231   6.087   0.135  0.8897  0.9844 -0.2223
 1760TIP3    H2 5710   4.299   5.952   0.153 -1.5589 -0.1657  0.5822
 1761TIP3   OH2 5711   0.842   3.851   4.536 -0.3845  0.1923  0.1992
 1761TIP3    H1 5712   0.748   3.842   4.547 -0.1560 -1.7203  0.7159
 1761TIP3    H2 5713   0.879   3.770   4.570  1.8045  2.6769  4.2452
 1762TIP3   OH2 5714   3.588   5.352   5.134  0.1684 -0.0762  0.1469
 1762TIP3    H1 5715   3.519   5.357   5.068 -0.2210  2.1308  0.6653
 1762TIP3    H2 5716   3.548   5.307   5.208 -0.3947  0.2728  0.0562
 1763TIP3   OH2 5717   2.385   3.745   2.713 -0.6944 -0.0302 -0.0989
 1763TIP3    H1 5718   2.344   3.675   2.663  1.4836 -1.9868  0.7602
 1763TIP3    H2 5719   2.313   3.803   2.736 -2.4239 -1.5465 -1.5511
 1764TIP3   OH2 5720   2.143   5.309   2.095  0.3325  0.5131  0.4319
 1764TIP3    H1 5721   2.079   5.379   2.103 -0.2829  0.1807 -1.3705
 1764TIP3    H2 5722   2.215   5.335   2.153 -1.0390  1.3089  1.8165
 1765TIP3   OH2 5723   3.877   3.669   2.163  0.5693 -0.3983  0.0829
 1765TIP3    H1 5724   3.909   3.695   2.076 -0.5296 -0.1816 -0.2586
 1765TIP3    H2 5725   3.915   3.582   2.177 -0.7463 -1.2528 -1.4260
 1766TIP3   OH2 5726   3.923   5.043   0.807 -0.0075  0.0304  0.3627
 1766TIP3    H1 5727   3.983   5.001   0.746  0.4919  1.9116 -0.4671
 1766TIP3    H2 5728   3.869   4.972   0.841  1.1245 -1.3323 -0.6608
 1767TIP3   OH2 5729   4.668   1.974   0.847  0.0779 -0.2006  0.2984
 1767TIP3    H1 5730   4.678   2.069   0.852  2.6210 -0.4603  0.4131
 1767TIP3    H2 5731   4.669   1.945   0.938 -3.6145 -0.1138  0.4486
 1768TIP3   OH2 5732   4.165   5.265   4.151  0.2563 -0.1937 -0.3794
 1768TIP3    H1 5733   4.199   5.346   4.187  0.0398  0.4670 -1.6217
 1768TIP3    H2 5734   4.166   5.203   4.224  2.1012  0.4099  0.1176
 1769TIP3   OH2 5735   3.410   3.315   0.254 -0.5059 -0.1224  0.2217
 1769TIP3    H1 5736   3.444   3.342   0.169  1.0809 -2.7487 -0.0194
 1769TIP3    H2 5737   3.352   3.241   0.234  0.2871 -1.0939  1.4381
 1770TIP3   OH2 5738   2.111   3.344   1.248 -0.2939 -0.0338 -0.0424
 1770TIP3    H1 5739   2.131   3.394   1.327  0.7213  1.3807 -1.1624
 1770TIP3    H2 5740   2.070   3.408   1.189  0.1527 -0.7455 -1.1395
 1771TIP3   OH2 5741   3.146   4.554   1.028 -0.0984 -0.1356 -0.3056
 1771TIP3    H1 5742   3.238   4.577   1.041 -0.3788 -0.0076  1.4819
 1771TIP3    H2 5743   3.145   4.458   1.029 -0.1120 -0.1273  0.5984
 1772TIP3   OH2 5744   3.745   3.829   0.781 -0.3191  0.1068  0.3371
 1772TIP3    H1 5745   3.777   3.740   0.767  0.5299  0.4065  0.3502
 1772TIP3    H2 5746   3.796   3.883   0.720 -0.8517  0.5827  0.3028
 1773TIP3   OH2 5747   3.414   3.637   0.631  0.1352  0.2515  0.0153
 1773TIP3    H1 5748   3.490   3.630   0.574 -0.5357 -1.4314 -0.6890
 1773TIP3    H2 5749   3.390   3.547   0.651 -3.5595  0.6343 -2.2711
 1774TIP3   OH2 5750   1.575   3.633   2.166 -0.3434 -0.1171  0.6059
 1774TIP3    H1 5751   1.616   3.708   2.123  1.0183 -0.9509  0.4185
 1774TIP3    H2 5752   1.482   3.642   2.146 -0.0933  1.0979 -0.0694
 1775TIP3   OH2 5753   4.438   4.003   2.402  0.5171  0.1148 -0.9550
 1775TIP3    H1 5754   4.497   4.003   2.327  1.9013  1.9731  0.1006
 1775TIP3    H2 5755   4.496   4.012   2.478 -1.0973  1.9846  0.0988
 1776TIP3   OH2 5756   3.139   3.894   5.748  0.0563 -0.1671  0.6177
 1776TIP3    H1 5757   3.078   3.955   5.708  0.5999  1.0475  1.6193
 1776TIP3    H2 5758   3.186   3.855   5.675 -0.4567  0.4434 -0.0378
 1777TIP3   OH2 5759   1.053   4.446   2.533 -0.5751 -0.2913 -0.4718
 1777TIP3    H1 5760   1.108   4.378   2.495  0.0237  0.2145 -0.5186
 1777TIP3    H2 5761   0.966   4.406   2.538 -0.5620 -0.5317 -1.9086
 1778TIP3   OH2 5762   3.112   5.560   0.627 -0.2048 -0.2646 -0.1595
 1778TIP3    H1 5763   3.178   5.496   0.653  2.3136  2.3838  0.1976
 1778TIP3    H2 5764   3.089   5.605   0.708 -0.2089  0.8636 -0.7783
 1779TIP3   OH2 5765   2.864   4.436   5.491  0.1949  0.1003 -0.5331
 1779TIP3    H1 5766   2.781   4.408   5.530 -0.3140  2.2119 -0.0150
 1779TIP3    H2 5767   2.856   4.412   5.399 -0.4962 -0.8189 -0.2394
 1780TIP3   OH2 5768   3.040   0.831   1.730 -0.0730 -0.2527 -0.0713
 1780TIP3    H1 5769   3.010   0.880   1.654  1.2559 -1.3682 -1.3362
 1780TIP3    H2 5770   2.967   0.773   1.752 -1.1352  1.3085  0.6216
 1781TIP3   OH2 5771   1.691   0.094   1.858  0.4536 -0.0964 -0.0479
 1781TIP3    H1 5772   1.599   0.081   1.836  0.0800  1.7298  0.3074
 1781TIP3    H2 5773   1.721   0.160   1.794  1.1894  0.1695  0.5735
 1782TIP3   OH2 5774   2.315   4.025   3.029  0.1699 -0.1309  0.4121
 1782TIP3    H1 5775   2.324   3.937   2.991  1.1078  0.3517 -0.5215
 1782TIP3    H2 5776   2.298   4.081   2.953  2.5556  0.9183  0.5962
 1783TIP3   OH2 5777   1.992   3.905   5.695  0.0784  0.1720  0.0738
 1783TIP3    H1 5778   1.938   3.917   5.773  0.5990  2.0348  0.1581
 1783TIP3    H2 5779   1.954   3.965   5.630  0.9635  0.2046 -0.4232
 1784TIP3   OH2 5780   3.718   3.798   2.380 -0.2569 -0.1553 -0.3914
 1784TIP3    H1 5781   3.746   3.750   2.302  0.3044 -0.9794  0.3045
 1784TIP3    H2 5782   3.791   3.788   2.442  0.0359  1.8977 -0.3611
 1785TIP3   OH2 5783   3.635   0.766   1.586 -0.4737 -0.8365 -0.0026
 1785TIP3    H1 5784   3.614   0.692   1.528 -0.7890 -1.0241  0.3507
 1785TIP3    H2 5785   3.679   0.726   1.661 -1.5870 -0.8020  0.6905
 1786TIP3   OH2 5786   2.091   0.121   0.004 -0.0057 -0.0824 -0.6665
 1786TIP3    H1 5787   2.036   0.069  -0.054  0.6541 -1.9456  0.3076
 1786TIP3    H2 5788   2.180   0.094  -0.018  0.2876 -0.2293  0.6281
 1787TIP3   OH2 5789   4.116   4.402   0.839 -0.3139  0.2137  0.1036
 1787TIP3    H1 5790   4.099   4.474   0.899 -0.6144  1.5232 -1.5410
 1787TIP3    H2 5791   4.210   4.389   0.843 -0.4689 -0.5267  1.7745
 1788TIP3   OH2 5792   0.054   0.032   1.658  0.5495  0.0143 -0.0850
 1788TIP3    H1 5793   0.119   0.084   1.611  0.4597  0.6677  0.5168
 1788TIP3    H2 5794   0.016  -0.025   1.591  0.8135  0.5478 -0.6941
 1789TIP3   OH2 5795   4.726   5.227   1.827 -0.3062 -0.1050 -0.0501
 1789TIP3    H1 5796   4.651   5.180   1.863  0.8337 -1.1897  0.9427
 1789TIP3    H2 5797   4.701   5.245   1.736 -1.8111 -0.3469  0.3029
 1790TIP3   OH2 5798   5.106   5.421   1.927  0.0534 -0.1705  0.8896
 1790TIP3    H1 5799   5.094   5.369   2.007  0.5189 -0.9080  0.4950
 1790TIP3    H2 5800   5.059   5.502   1.943  0.4426 -0.1684  2.0557
 1791TIP3   OH2 5801   1.830   4.686   1.116  0.5213  0.4598  0.3954
 1791TIP3    H1 5802   1.835   4.772   1.074  0.3684  0.7123  0.9060
 1791TIP3    H2 5803   1.866   4.626   1.050 -0.6056  0.7293 -0.4682
 1792TIP3   OH2 5804   1.928   0.048   5.325 -0.6151 -0.0839  0.4764
 1792TIP3    H1 5805   1.878   0.106   5.268 -0.4873 -0.2597  0.1864
 1792TIP3    H2 5806   1.936  -0.033   5.276 -1.8309 -0.7576  1.3775
 1793TIP3   OH2 5807   4.072   3.730   1.475  0.2069  0.2156 -0.7763
 1793TIP3    H1 5808   3.981   3.718   1.448 -0.0249 -0.9882  0.5062
 1793TIP3    H2 5809   4.076   3.697   1.565  2.1884 -0.9773 -1.2526
 1794TIP3   OH2 5810   3.006   5.047   5.373  0.2610  0.3058  0.7201
 1794TIP3    H1 5811   2.959   5.000   5.303 -2.0910  0.1428  2.3609
 1794TIP3    H2 5812   2.937   5.079   5.431  2.0136  3.1167  1.3446
 1795TIP3   OH2 5813   3.907   1.007   2.459 -0.3115  0.7079 -0.4203
 1795TIP3    H1 5814   3.987   1.037   2.417 -1.1861  2.8317 -0.6446
 1795TIP3    H2 5815   3.928   1.004   2.552 -1.1172  5.3315  0.0162
 1796TIP3   OH2 5816   1.892   2.400   5.820 -0.4036  0.3494  0.5662
 1796TIP3    H1 5817   1.821   2.387   5.883 -1.1152  0.0796 -0.2847
 1796TIP3    H2 5818   1.894   2.495   5.806  0.2573  0.4908  1.5625
 1797TIP3   OH2 5819   1.163   2.628   5.128  0.0683  0.4548 -0.0742
 1797TIP3    H1 5820   1.225   2.612   5.056 -1.7637 -0.4102 -1.5179
 1797TIP3    H2 5821   1.088   2.572   5.107 -1.5924  2.1812  1.1386
 1798TIP3   OH2 5822   4.918   1.086   0.762  0.4527 -0.6138  0.1371
 1798TIP3    H1 5823   4.924   1.045   0.848 -0.0878 -0.1822  0.3850
 1798TIP3    H2 5824   4.946   1.018   0.701  0.8480 -0.9154  0.6550
 1799TIP3   OH2 5825   4.935   3.326   1.134 -0.2350  0.1535 -0.1526
 1799TIP3    H1 5826   5.025   3.301   1.153  0.1084  2.2672  1.1363
 1799TIP3    H2 5827   4.932   3.337   1.039  1.2151  1.3839 -0.0652
 1800TIP3   OH2 5828   3.602   4.361   5.763 -0.0522 -0.2540 -0.2059
 1800TIP3    H1 5829   3.509   4.371   5.783 -0.3898 -1.8503 -0.9009
 1800TIP3    H2 5830   3.643   4.439   5.799 -1.6183  0.2933  0.4173
 1801TIP3   OH2 5831   1.110   5.128   5.027  0.6062 -0.2143  0.3044
 1801TIP3    H1 5832   1.148   5.103   5.111 -0.6262 -0.7362  0.7239
 1801TIP3    H2 5833   1.176   5.103   4.962  2.1571  1.4651  1.2013
 1802TIP3   OH2 5834   3.519   4.020   1.860 -0.3624  0.3674  0.2502
 1802TIP3    H1 5835   3.562   3.939   1.833 -0.9949  0.0134  0.2997
 1802TIP3    H2 5836   3.507   4.069   1.779 -1.1064 -0.1376  0.0500
 1803TIP3   OH2 5837   3.707   3.186   5.382 -0.0096 -0.2883 -0.1256
 1803TIP3    H1 5838   3.779   3.233   5.340 -1.0775  1.4156 -0.1016
 1803TIP3    H2 5839   3.750   3.119   5.435  1.5194  0.1355 -0.8040
 1804TIP3   OH2 5840   2.865   1.877   1.441  0.0056 -1.1814  0.1542
 1804TIP3    H1 5841   2.858   1.880   1.537 -1.0863 -0.6775  0.0705
 1804TIP3    H2 5842   2.895   1.788   1.422 -1.5957 -1.9038  0.8839
 1805TIP3   OH2 5843   2.112   5.657   0.122 -0.0463 -0.9779  0.4380
 1805TIP3    H1 5844   2.095   5.586   0.184  1.1738 -2.4540 -0.8912
 1805TIP3    H2 5845   2.149   5.614   0.045 -1.8047  0.7719 -1.4645
 1806TIP3   OH2 5846   2.931   3.122   2.629 -0.5887 -0.8387 -0.1157
 1806TIP3    H1 5847   2.895   3.147   2.714 -0.1382 -1.2521  0.2002
 1806TIP3    H2 5848   2.939   3.204   2.580 -1.7991 -0.7214 -0.1299
 1807TIP3   OH2 5849   3.527   2.738   0.996 -0.7212 -0.2028 -0.1228
 1807TIP3    H1 5850   3.489   2.653   0.974 -0.5563 -0.1059 -0.7674
 1807TIP3    H2 5851   3.466   2.775   1.060 -1.0626 -0.5764 -0.2307
 1808TIP3   OH2 5852   2.308   0.630   4.989  1.0515 -0.3440 -0.0787
 1808TIP3    H1 5853   2.325   0.636   4.894 -0.6019  1.6271 -0.2857
 1808TIP3    H2 5854   2.249   0.556   4.998  2.1488 -1.2827 -0.4382
 1809TIP3   OH2 5855   2.370   3.516   5.540  0.7514 -0.0391 -0.0978
 1809TIP3    H1 5856   2.275   3.506   5.531  0.3144  2.4743  1.1796
 1809TIP3    H2 5857   2.397   3.440   5.592 -0.3843 -1.3161 -1.3359
 1810TIP3   OH2 5858   3.098   6.014   3.813 -0.0210  0.1771  0.0327
 1810TIP3    H1 5859   3.061   6.102   3.802 -1.6401 -0.2869  1.5118
 1810TIP3    H2 5860   3.049   5.977   3.886 -0.3519 -2.5006 -1.4955
 1811TIP3   OH2 5861   5.595   3.764   5.423 -0.2698 -0.3664  0.5922
 1811TIP3    H1 5862   5.636   3.829   5.481  0.1488  0.4336 -0.5930
 1811TIP3    H2 5863   5.503   3.791   5.418  0.1512  0.8413 -0.8494
 1812TIP3   OH2 5864   5.997   3.390   2.580  0.0844 -0.1198 -0.0084
 1812TIP3    H1 5865   5.901   3.401   2.580  0.2391  1.4200  0.9842
 1812TIP3    H2 5866   6.012   3.318   2.641 -0.3350  0.9796  1.4264
 1813TIP3   OH2 5867   5.339   3.807   4.592 -0.2532  0.1389 -0.0476
 1813TIP3    H1 5868   5.243   3.803   4.597 -0.2412  0.9089  0.9544
 1813TIP3    H2 5869   5.362   3.743   4.525 -1.5287  0.5127 -0.8703
 1814TIP3   OH2 5870   4.191   2.113   2.423  0.3025  0.2497 -0.6086
 1814TIP3    H1 5871   4.212   2.154   2.507 -0.3968 -0.1821 -0.2204
 1814TIP3    H2 5872   4.216   2.021   2.434 -1.9723 -0.3284 -0.0521
 1815TIP3   OH2 5873   4.200   4.442   5.473  0.7820 -0.3628 -0.7187
 1815TIP3    H1 5874   4.272   4.467   5.531  0.1223  1.4081 -0.6452
 1815TIP3    H2 5875   4.214   4.348   5.457  3.1398 -0.0455 -0.7746
 1816TIP3   OH2 5876   3.197   6.017   0.018  0.4514  0.1903  0.2642
 1816TIP3    H1 5877   3.191   6.023   0.113  2.4801 -0.1492  0.4259
 1816TIP3    H2 5878   3.289   6.037  -0.002  0.2317 -0.5092 -1.5536
 1817TIP3   OH2 5879   3.996   4.079   5.711 -0.3326  0.1672  0.0378
 1817TIP3    H1 5880   4.034   3.999   5.747 -0.0308 -0.8712 -2.4897
 1817TIP3    H2 5881   4.064   4.145   5.724  1.1259 -0.9573 -1.5828
 1818TIP3   OH2 5882   4.473   5.335   1.311  0.5477 -0.0217 -0.0424
 1818TIP3    H1 5883   4.379   5.350   1.302  0.2609  0.5413  3.2747
 1818TIP3    H2 5884   4.481   5.239   1.311 -0.0997 -0.0828  0.3781
 1819TIP3   OH2 5885   4.503   3.442   2.490 -0.4938 -0.1234 -0.3167
 1819TIP3    H1 5886   4.542   3.358   2.513  0.6458 -0.0710 -1.9565
 1819TIP3    H2 5887   4.575   3.505   2.496 -1.1274  0.5862  0.0026
 1820TIP3   OH2 5888   5.285   4.331   2.231  0.1386 -0.5667  0.3605
 1820TIP3    H1 5889   5.256   4.243   2.207  0.5427 -0.0759 -2.0393
 1820TIP3    H2 5890   5.378   4.332   2.211  0.2998  0.1727  1.1333
 1821TIP3   OH2 5891   4.173   4.444   2.285  0.8141  0.5187  0.5279
 1821TIP3    H1 5892   4.266   4.455   2.264  1.0586 -2.5072 -0.2308
 1821TIP3    H2 5893   4.129   4.441   2.200  0.7488 -3.2063  0.5828
 1822TIP3   OH2 5894   4.002   2.928   2.721 -0.1301  0.1320 -0.2046
 1822TIP3    H1 5895   4.013   3.012   2.766  0.6980  0.1166 -0.3664
 1822TIP3    H2 5896   3.984   2.866   2.791  1.4920  0.0505  0.1477
 1823TIP3   OH2 5897   1.451   4.986   0.475 -0.0685  0.1752 -0.2134
 1823TIP3    H1 5898   1.397   5.020   0.404  1.7011  0.9465 -1.2202
 1823TIP3    H2 5899   1.528   5.043   0.476  0.1737 -0.1456  1.9849
 1824TIP3   OH2 5900   0.109   3.527   4.199  0.6946 -0.0212  0.2541
 1824TIP3    H1 5901   0.118   3.492   4.288  0.1319 -0.5514  0.0956
 1824TIP3    H2 5902   0.120   3.622   4.211 -1.9517  0.1845  1.2478
 1825TIP3   OH2 5903   4.594   4.217   1.354 -0.0034 -0.2765 -0.0293
 1825TIP3    H1 5904   4.647   4.139   1.369 -1.4229 -0.8912  2.0320
 1825TIP3    H2 5905   4.508   4.182   1.329  0.6713  0.7026 -4.2091
 1826TIP3   OH2 5906   1.890   0.508   1.971  0.2559  0.1518 -0.2162
 1826TIP3    H1 5907   1.802   0.488   2.003 -0.1188  1.3517 -0.4986
 1826TIP3    H2 5908   1.881   0.511   1.876 -0.1099  3.5912 -0.1068
 1827TIP3   OH2 5909   2.572   3.812   1.237 -0.0856  0.0548 -0.3395
 1827TIP3    H1 5910   2.641   3.846   1.294 -0.0869  0.4074 -0.5463
 1827TIP3    H2 5911   2.503   3.783   1.297  0.6209 -1.1419 -0.0915
 1828TIP3   OH2 5912   3.048   4.792   5.075 -0.2836  0.0663 -0.2744
 1828TIP3    H1 5913   3.077   4.739   5.150  1.2881  2.1557  0.6402
 1828TIP3    H2 5914   2.968   4.834   5.106  0.1103  0.5631  0.0841
 1829TIP3   OH2 5915   0.394   5.770   2.932  0.2190 -0.2873  0.3161
 1829TIP3    H1 5916   0.387   5.819   3.014  1.2894 -0.1028  0.3047
 1829TIP3    H2 5917   0.393   5.678   2.959  0.4777 -0.2275  0.5305
 1830TIP3   OH2 5918   1.561   3.038   2.490  0.3709  0.3145  0.3634
 1830TIP3    H1 5919   1.535   2.972   2.426 -1.4962  0.8902  0.4882
 1830TIP3    H2 5920   1.613   3.101   2.440 -1.5609  1.0654 -0.7435
 1831TIP3   OH2 5921   4.310   5.168   2.709  0.0481  0.5679  0.8691
 1831TIP3    H1 5922   4.249   5.147   2.779  0.8247 -0.2682  1.3044
 1831TIP3    H2 5923   4.378   5.220   2.752  0.5628 -0.0045  0.7449
 1832TIP3   OH2 5924   2.409   3.658   0.430  0.1923  0.2635  0.2409
 1832TIP3    H1 5925   2.493   3.628   0.466  0.5427 -0.6529 -1.2725
 1832TIP3    H2 5926   2.425   3.748   0.402  1.0962 -0.3362 -1.2728
 1833TIP3   OH2 5927   4.120   2.499   5.024  0.0678  0.2102 -0.0106
 1833TIP3    H1 5928   4.213   2.482   5.038  0.1917 -0.1477 -1.2396
 1833TIP3    H2 5929   4.102   2.577   5.077  0.9300 -0.0339  0.6603
 1834TIP3   OH2 5930   4.652   5.468   1.983  0.0437  0.4365 -0.4464
 1834TIP3    H1 5931   4.583   5.424   2.033  0.7846 -1.0428 -0.7244
 1834TIP3    H2 5932   4.705   5.397   1.946  2.3914  1.5617  0.6816
 1835TIP3   OH2 5933   5.034   4.647   3.219 -0.3014 -0.3024  0.7891
 1835TIP3    H1 5934   4.984   4.596   3.156  0.0645  0.2395  0.0548
 1835TIP3    H2 5935   5.125   4.619   3.205 -0.1896  0.0028  0.9001
 1836TIP3   OH2 5936   0.342   1.910   0.646  0.2048  0.4303 -0.4304
 1836TIP3    H1 5937   0.388   1.992   0.666 -0.6699  1.2579 -1.6863
 1836TIP3    H2 5938   0.264   1.913   0.701  0.1046  0.5048 -0.5769
 1837TIP3   OH2 5939   3.777   2.965   0.737  0.4174  0.2566 -0.5666
 1837TIP3    H1 5940   3.871   2.974   0.720  0.1546  0.3797 -1.9915
 1837TIP3    H2 5941   3.735   2.986   0.653 -1.2192  6.4210  1.5077
 1838TIP3   OH2 5942   4.640   4.469   1.467 -0.1476 -0.7707  0.1895
 1838TIP3    H1 5943   4.646   4.383   1.427  0.3335 -0.1607 -1.0877
 1838TIP3    H2 5944   4.548   4.477   1.494 -0.3528 -1.4016 -0.3297
 1839TIP3   OH2 5945   4.021   0.762   0.834 -0.2038 -0.3230 -0.0698
 1839TIP3    H1 5946   4.100   0.776   0.886  0.3210 -1.4021 -0.5404
 1839TIP3    H2 5947   4.047   0.783   0.745 -1.0638  1.3939  0.0707
 1840TIP3   OH2 5948   0.382   4.567   0.881 -0.4188 -0.8030 -0.1340
 1840TIP3    H1 5949   0.410   4.599   0.795  0.0855  3.3918  1.5056
 1840TIP3    H2 5950   0.450   4.504   0.906  2.0120  1.4595 -0.7877
 1841TIP3   OH2 5951   0.125   1.345   2.595 -0.3005  0.1345  0.6319
 1841TIP3    H1 5952   0.056   1.411   2.590  0.0147  0.3517 -1.2070
 1841TIP3    H2 5953   0.095   1.284   2.662 -0.0162  2.7741  3.2778
 1842TIP3   OH2 5954   2.263   0.559   2.921  0.2439 -0.2851 -0.5532
 1842TIP3    H1 5955   2.259   0.653   2.902  0.0365 -0.3451 -0.8082
 1842TIP3    H2 5956   2.293   0.520   2.839  0.0226 -0.4756 -0.5425
 1843TIP3   OH2 5957   5.617   1.630   0.190 -0.6594 -0.1893  0.2354
 1843TIP3    H1 5958   5.705   1.636   0.152  0.0290 -1.5860  1.5119
 1843TIP3    H2 5959   5.612   1.539   0.221 -1.6147  0.5732  2.3819
 1844TIP3   OH2 5960   0.146   5.464   1.133  0.5590 -0.0461  0.2162
 1844TIP3    H1 5961   0.084   5.534   1.154 -0.1637 -0.4897 -0.4179
 1844TIP3    H2 5962   0.140   5.405   1.208  0.6474  0.2055  0.4240
 1845TIP3   OH2 5963   0.262   3.660   2.517 -0.1376 -0.1939 -0.5241
 1845TIP3    H1 5964   0.210   3.592   2.474  0.3523  0.1447 -1.6825
 1845TIP3    H2 5965   0.328   3.613   2.567 -0.5266 -0.5888 -0.3774
 1846TIP3   OH2 5966   1.222   4.752   4.570  0.2296 -0.0457 -0.7848
 1846TIP3    H1 5967   1.128   4.770   4.572 -0.3017 -2.5776 -1.5672
 1846TIP3    H2 5968   1.237   4.708   4.486  2.1001  0.1608 -0.5893
 1847TIP3   OH2 5969   0.027   4.690   0.975  0.2942  0.1492 -0.4331
 1847TIP3    H1 5970   0.053   4.690   0.883 -0.0760 -1.8147 -0.5681
 1847TIP3    H2 5971   0.092   4.635   1.019 -1.9903 -2.6595 -0.3336
 1848TIP3   OH2 5972   6.032   5.917   5.740  0.7562 -0.6576  0.0328
 1848TIP3    H1 5973   6.067   5.955   5.660 -2.5697  1.0628 -0.6885
 1848TIP3    H2 5974   6.050   5.981   5.808  0.2042 -0.3613 -0.0948
 1849TIP3   OH2 5975   6.008   3.886   1.531  0.0248  0.1366 -0.2238
 1849TIP3    H1 5976   6.033   3.978   1.541 -0.7640  0.7181 -2.9727
 1849TIP3    H2 5977   6.034   3.865   1.441 -1.5122 -1.7851 -0.2362
 1850TIP3   OH2 5978   4.848   4.431   5.995  0.1617 -0.2528 -0.8238
 1850TIP3    H1 5979   4.794   4.492   5.946  1.2102  0.0186 -1.6780
 1850TIP3    H2 5980   4.938   4.453   5.970  0.5853 -1.7721 -0.7340
 1851TIP3   OH2 5981   2.315   5.795   0.689 -0.2500  0.5921 -1.1382
 1851TIP3    H1 5982   2.267   5.729   0.640  0.7245 -1.4311  0.5431
 1851TIP3    H2 5983   2.251   5.864   0.707 -1.9902 -1.1201 -0.6529
 1852TIP3   OH2 5984   4.829   5.493   0.959 -0.4027 -0.2360 -0.6927
 1852TIP3    H1 5985   4.768   5.439   1.007 -0.5534  0.2485 -0.3362
 1852TIP3    H2 5986   4.801   5.583   0.976  1.3438  0.0705  0.7564
 1853TIP3   OH2 5987   4.638   3.211   2.494  0.8134 -0.6638 -0.0093
 1853TIP3    H1 5988   4.586   3.133   2.475  0.9227 -0.9437  0.8268
 1853TIP3    H2 5989   4.723   3.177   2.524  0.1523 -0.2854  2.4221
 1854TIP3   OH2 5990   3.589   3.259   1.496  0.2198 -0.8567 -0.4006
 1854TIP3    H1 5991   3.580   3.245   1.590 -0.5507 -1.9160 -0.6290
 1854TIP3    H2 5992   3.507   3.301   1.470  1.0178  0.7767 -0.3627
 1855TIP3   OH2 5993   5.782   1.254   0.875  0.5927 -0.8982 -0.0583
 1855TIP3    H1 5994   5.796   1.160   0.880 -1.9873 -1.4577 -2.1674
 1855TIP3    H2 5995   5.832   1.283   0.799  1.5464 -0.5232  0.7063
 1856TIP3   OH2 5996   2.684   0.871   5.185  0.2063 -0.1237  0.7815
 1856TIP3    H1 5997   2.680   0.933   5.258 -0.8330  0.7994 -0.0501
 1856TIP3    H2 5998   2.734   0.917   5.118 -1.1940  0.1173 -0.1136
 1857TIP3   OH2 5999   5.193   4.372   2.502 -0.2451  0.1143 -0.0957
 1857TIP3    H1 6000   5.245   4.451   2.519  2.1283 -1.4890  0.2219
 1857TIP3    H2 6001   5.207   4.354   2.409  0.6407 -0.9373  0.2402
 1858TIP3   OH2 6002   3.313   5.652   2.507 -0.1632  0.1794  0.8547
 1858TIP3    H1 6003   3.344   5.587   2.571  2.6552  1.7899  1.1903
 1858TIP3    H2 6004   3.225   5.675   2.537 -0.5067 -2.1442  1.7426
 1859TIP3   OH2 6005   2.304   0.002   2.805  0.0077 -0.3623 -0.0438
 1859TIP3    H1 6006   2.307   0.059   2.881  1.1764 -1.8992  1.0785
 1859TIP3    H2 6007   2.266   0.057   2.736  1.0293  1.7328  1.0143
 1860TIP3   OH2 6008   0.181   4.741   4.822  0.0329  0.0663  0.5460
 1860TIP3    H1 6009   0.198   4.772   4.733  0.4995  2.0711  1.3076
 1860TIP3    H2 6010   0.146   4.817   4.868 -0.5926 -1.0559  1.9757
 1861TIP3   OH2 6011   3.717   4.312   4.848 -0.0281  0.5103 -0.3174
 1861TIP3    H1 6012   3.786   4.376   4.863  2.6076 -2.2152 -0.3268
 1861TIP3    H2 6013   3.661   4.319   4.925 -0.9070  4.0995 -1.1884
 1862TIP3   OH2 6014   5.318   2.900   1.601  0.4075  0.3570 -0.5166
 1862TIP3    H1 6015   5.229   2.868   1.589  0.3198 -0.1398  1.3255
 1862TIP3    H2 6016   5.367   2.823   1.632  0.3139  1.7999  3.4864
 1863TIP3   OH2 6017   1.053   5.733   0.148 -0.0666  0.3878 -0.2194
 1863TIP3    H1 6018   1.079   5.706   0.236  0.4379  1.4144 -0.0517
 1863TIP3    H2 6019   0.958   5.741   0.153  0.0142  1.0686  0.4188
 1864TIP3   OH2 6020   5.995   4.675   5.161 -0.6137  0.2290  0.4616
 1864TIP3    H1 6021   5.922   4.696   5.103  1.4599 -3.0337 -3.6907
 1864TIP3    H2 6022   5.972   4.589   5.198  0.6778 -0.4236 -0.2102
 1865TIP3   OH2 6023   0.773   5.867   1.923  0.2910  0.9275  0.3559
 1865TIP3    H1 6024   0.835   5.795   1.915 -0.0626  0.5202  1.2024
 1865TIP3    H2 6025   0.795   5.908   2.007 -0.2712  1.0824  0.4285
 1866TIP3   OH2 6026   5.189   4.813   5.732 -0.1733 -0.1244 -0.0890
 1866TIP3    H1 6027   5.276   4.811   5.773 -1.6142 -0.1871  3.1195
 1866TIP3    H2 6028   5.173   4.905   5.714  1.1259 -0.2583 -1.9878
 1867TIP3   OH2 6029   4.911   3.601   2.223  1.1751 -0.0908 -0.5653
 1867TIP3    H1 6030   4.952   3.687   2.215  1.1895 -0.0381  0.0684
 1867TIP3    H2 6031   4.827   3.611   2.178  0.2567  0.8767  1.2628
 1868TIP3   OH2 6032   0.077   4.726   0.459 -0.5345  0.5000  0.6075
 1868TIP3    H1 6033   0.073   4.783   0.382 -1.1767 -0.1508  0.1545
 1868TIP3    H2 6034   0.018   4.654   0.439 -0.9279  0.4667  1.8354
 1869TIP3   OH2 6035   4.448   3.731   2.684 -0.3460 -0.0443 -0.0432
 1869TIP3    H1 6036   4.514   3.716   2.616  0.5369  0.3927  0.7154
 1869TIP3    H2 6037   4.405   3.646   2.695  1.1020 -0.7059  0.5315
 1870TIP3   OH2 6038   4.328   5.041   0.051 -0.1484  0.1220  0.6034
 1870TIP3    H1 6039   4.356   5.092  -0.025 -0.7997  1.0295  0.9629
 1870TIP3    H2 6040   4.351   5.095   0.127 -0.3914 -0.3316  1.0059
 1871TIP3   OH2 6041   5.184   3.139   5.229  0.2869  0.6885 -0.4626
 1871TIP3    H1 6042   5.125   3.124   5.156 -0.6632 -0.3063  0.4909
 1871TIP3    H2 6043   5.265   3.094   5.204 -0.7227 -1.4676 -0.0241
 1872TIP3   OH2 6044   4.676   3.490   1.931 -0.1847 -0.3190  0.1429
 1872TIP3    H1 6045   4.676   3.572   1.980  0.1585 -0.5690  0.5736
 1872TIP3    H2 6046   4.736   3.505   1.858 -0.5354 -0.0139 -0.0850
 1873TIP3   OH2 6047   6.054   4.487   0.402  0.1463  0.1751 -0.0267
 1873TIP3    H1 6048   6.020   4.480   0.491 -1.0409  1.4793 -0.3572
 1873TIP3    H2 6049   6.026   4.407   0.359 -0.8756  0.3777  0.2567
 1874TIP3   OH2 6050   4.233   5.112   4.386 -0.1509 -0.2923 -0.3441
 1874TIP3    H1 6051   4.325   5.091   4.404  0.0489  0.0453 -0.9595
 1874TIP3    H2 6052   4.184   5.055   4.445  0.3860 -2.1690 -1.6899
 1875TIP3   OH2 6053   5.252   0.114   2.344  0.1042  0.2252  0.3678
 1875TIP3    H1 6054   5.178   0.075   2.391  0.7589 -1.1241  0.3010
 1875TIP3    H2 6055   5.309   0.147   2.414 -0.0937  0.4073  0.4455
 1876TIP3   OH2 6056   5.872   0.368   2.016  0.5425  0.8555 -0.9533
 1876TIP3    H1 6057   5.896   0.369   1.923 -2.2077 -2.7214 -1.7772
 1876TIP3    H2 6058   5.904   0.284   2.048 -0.6543  1.0410  0.7710
 1877TIP3   OH2 6059   5.597   3.586   3.816 -0.1357  0.0563  0.6759
 1877TIP3    H1 6060   5.626   3.676   3.800  0.2329 -0.3728 -1.2181
 1877TIP3    H2 6061   5.675   3.541   3.849  0.3498 -0.1334 -0.6730
 1878TIP3   OH2 6062   4.668   5.290   1.572 -0.7400  0.5853  0.0904
 1878TIP3    H1 6063   4.702   5.376   1.549  0.0721  0.9486  2.5068
 1878TIP3    H2 6064   4.697   5.232   1.502  1.2263  1.7167 -0.0453
 1879TIP3   OH2 6065   3.619   4.330   1.044 -0.3784 -0.2306  0.0851
 1879TIP3    H1 6066   3.610   4.238   1.019  1.1513 -0.1802 -0.6704
 1879TIP3    H2 6067   3.659   4.326   1.132  0.7443 -0.2860 -0.4139
 1880TIP3   OH2 6068   4.420   2.676   5.973  0.4607  0.3411  0.2869
 1880TIP3    H1 6069   4.478   2.748   5.997  0.3374  0.1719  1.1186
 1880TIP3    H2 6070   4.456   2.600   6.019  0.2717 -0.0116 -0.1471
 1881TIP3   OH2 6071   5.573   3.586   2.269  0.2549 -0.2675 -0.1564
 1881TIP3    H1 6072   5.652   3.536   2.289 -0.7342 -1.9201 -0.2624
 1881TIP3    H2 6073   5.550   3.560   2.180  1.1650  2.3643 -1.2115
 1882TIP3   OH2 6074   5.076   2.981   1.202  0.5855 -0.0512 -0.2194
 1882TIP3    H1 6075   5.135   3.046   1.240 -0.9049  0.8036  0.6684
 1882TIP3    H2 6076   4.990   3.023   1.203  0.0578 -1.0535 -2.0589
 1883TIP3   OH2 6077   5.074   5.584   1.109  0.2028 -0.3817  0.2434
 1883TIP3    H1 6078   5.087   5.570   1.015 -0.2928 -1.0874  0.2797
 1883TIP3    H2 6079   5.006   5.522   1.134  1.6555 -1.5326  1.4510
 1884TIP3   OH2 6080   4.325   4.128   1.372 -0.2363  0.3345  0.1242
 1884TIP3    H1 6081   4.252   4.117   1.311  0.1966 -1.1617 -0.1553
 1884TIP3    H2 6082   4.317   4.053   1.432  0.5934  0.6082  0.5838
 1885TIP3   OH2 6083   5.319   2.176   2.058  0.0687 -0.3937 -0.9608
 1885TIP3    H1 6084   5.392   2.137   2.010 -1.2360 -1.1514 -2.3884
 1885TIP3    H2 6085   5.337   2.270   2.058  1.4523 -0.6488 -0.5815
 1886TIP3   OH2 6086   6.058   1.843   5.637 -0.2057  0.5923  1.1327
 1886TIP3    H1 6087   6.063   1.836   5.541 -3.1478  0.6342  0.9393
 1886TIP3    H2 6088   6.065   1.753   5.668 -0.4381  0.4598  0.8034
 1887TIP3   OH2 6089   0.557   1.424   2.291  0.1584 -0.1020 -0.0632
 1887TIP3    H1 6090   0.592   1.509   2.313  0.3724 -0.0820 -0.4728
 1887TIP3    H2 6091   0.463   1.431   2.309  0.0374  0.4887 -0.8900
 1888TIP3   OH2 6092   3.064   0.496   1.770 -0.0178  0.2833  0.3501
 1888TIP3    H1 6093   3.069   0.578   1.818 -1.8215 -0.6574  2.2112
 1888TIP3    H2 6094   3.086   0.428   1.834  0.7874 -0.7588 -0.9870
 1889TIP3   OH2 6095   5.366   5.554   1.239 -0.0774 -0.0480 -0.5281
 1889TIP3    H1 6096   5.280   5.594   1.222 -0.8820 -1.1889  0.7172
 1889TIP3    H2 6097   5.412   5.559   1.156 -1.1015  1.2196 -1.0286
 1890TIP3   OH2 6098   0.106   5.186   0.852  0.3648 -0.3139  0.2279
 1890TIP3    H1 6099   0.157   5.106   0.854 -0.6574 -0.9292  2.5587
 1890TIP3    H2 6100   0.033   5.167   0.793 -0.3592 -1.4111  1.4652
 1891TIP3   OH2 6101   3.967   5.351   3.024 -0.0857 -0.0152 -0.3846
 1891TIP3    H1 6102   4.039   5.402   2.987 -0.6759  1.0323 -0.1072
 1891TIP3    H2 6103   3.897   5.357   2.958 -0.4508  0.2316  0.0227
 1892TIP3   OH2 6104   4.910   1.686   0.921 -0.3002 -0.3268 -0.3371
 1892TIP3    H1 6105   4.907   1.591   0.930 -2.2979 -0.2746 -0.4189
 1892TIP3    H2 6106   4.821   1.712   0.897  0.7344  1.3468 -2.6131
 1893TIP3   OH2 6107   4.664   5.824   1.704 -0.2129 -0.2947 -0.0216
 1893TIP3    H1 6108   4.745   5.781   1.678 -0.7007 -0.6461 -0.9976
 1893TIP3    H2 6109   4.679   5.917   1.687  0.8481 -0.0560  2.0903
 1894TIP3   OH2 6110   0.219   2.910   4.401  0.1443 -0.1826  0.0866
 1894TIP3    H1 6111   0.210   2.946   4.313  0.9155 -1.7279 -0.6418
 1894TIP3    H2 6112   0.141   2.940   4.447 -0.3622  0.4856 -1.1837
 1895TIP3   OH2 6113   4.016   5.025   1.298 -0.0834 -0.2588  0.2022
 1895TIP3    H1 6114   4.004   4.958   1.231 -2.2269  0.6425 -0.3622
 1895TIP3    H2 6115   4.017   5.108   1.249  0.9309  0.2517  1.0538
 1896TIP3   OH2 6116   2.907   2.885   5.039  0.1366  0.0899 -0.2296
 1896TIP3    H1 6117   2.989   2.931   5.058  0.3948 -0.0236 -1.0374
 1896TIP3    H2 6118   2.893   2.900   4.945  0.1117 -1.3005 -0.4543
 1897TIP3   OH2 6119   3.155   4.279   1.316  0.5955  0.2198 -0.5004
 1897TIP3    H1 6120   3.194   4.324   1.240 -0.4717  0.9096 -0.6566
 1897TIP3    H2 6121   3.185   4.331   1.391  0.5602  0.3316 -0.5619
 1898TIP3   OH2 6122   3.959   5.613   0.206  0.6640  0.1175 -0.5866
 1898TIP3    H1 6123   4.043   5.572   0.184  1.1675 -1.3736  3.6388
 1898TIP3    H2 6124   3.913   5.547   0.258 -0.0848  3.4661  3.2316
 1899TIP3   OH2 6125   0.056   3.216   1.239  0.3684 -0.5018 -0.0584
 1899TIP3    H1 6126   0.118   3.168   1.293  0.9577  0.3538  0.0334
 1899TIP3    H2 6127   0.105   3.238   1.159 -0.3351 -1.3059 -0.7125
 1900TIP3   OH2 6128   4.339   5.563   2.274  0.2691 -0.1203  0.1087
 1900TIP3    H1 6129   4.301   5.610   2.348  1.0217 -0.5857  0.8025
 1900TIP3    H2 6130   4.345   5.628   2.204  0.1370  0.4818  0.6518
 1901TIP3   OH2 6131   5.555   3.488   2.935  0.1281  0.6472  0.0216
 1901TIP3    H1 6132   5.628   3.533   2.892  0.9578 -0.1432  0.5581
 1901TIP3    H2 6133   5.525   3.424   2.870 -1.6463  2.5632 -1.0783
 1902TIP3   OH2 6134   5.793   1.867   1.578  0.2099  0.1085 -0.1093
 1902TIP3    H1 6135   5.711   1.839   1.537  0.8268 -0.8655 -0.6993
 1902TIP3    H2 6136   5.813   1.798   1.641  1.5355 -0.6067 -1.2875
 1903TIP3   OH2 6137   1.135   5.702   0.468  0.4516  0.5207  0.2369
 1903TIP3    H1 6138   1.229   5.715   0.482  0.3954 -0.2548  1.3874
 1903TIP3    H2 6139   1.111   5.632   0.528 -0.6314 -0.1446 -0.9310
 1904TIP3   OH2 6140   0.019   0.197   0.810 -0.1898 -0.7261 -0.4874
 1904TIP3    H1 6141   0.072   0.238   0.879  0.4989 -1.1198 -0.7848
 1904TIP3    H2 6142  -0.067   0.186   0.850  0.3402 -1.3935  0.4719
 1905TIP3   OH2 6143   1.971   5.940   2.027 -0.1329  0.8649 -0.3756
 1905TIP3    H1 6144   1.892   5.890   2.009 -2.1011  3.7814 -0.2327
 1905TIP3    H2 6145   2.041   5.876   2.027 -2.6372 -1.9633  0.5215
 1906TIP3   OH2 6146   4.797   3.209   4.704  0.1865 -0.0350  0.1321
 1906TIP3    H1 6147   4.809   3.209   4.609  0.8227 -1.8350  0.2037
 1906TIP3    H2 6148   4.873   3.162   4.738  0.3967  1.3403  1.6036
 1907TIP3   OH2 6149   2.765   3.827   4.191  0.1263  0.5146  0.3069
 1907TIP3    H1 6150   2.804   3.841   4.105  1.5667  1.7579  1.1237
 1907TIP3    H2 6151   2.801   3.897   4.245 -0.5982 -0.3637  1.9707
 1908TIP3   OH2 6152   0.148   1.861   0.449 -0.5404 -0.3546 -0.3146
 1908TIP3    H1 6153   0.229   1.865   0.500  0.3233  2.3028 -1.8304
 1908TIP3    H2 6154   0.082   1.899   0.506  0.3176  2.1140 -0.9163
 1909TIP3   OH2 6155   5.729   5.401   1.149  0.2286  0.0849 -0.3070
 1909TIP3    H1 6156   5.694   5.350   1.221  1.0928  1.1879  0.9237
 1909TIP3    H2 6157   5.807   5.354   1.121  0.0273 -0.2122 -0.3711
 1910TIP3   OH2 6158   4.698   0.036   1.293  0.1308 -0.3245 -0.0322
 1910TIP3    H1 6159   4.628  -0.019   1.327  1.0376 -1.3790  0.1607
 1910TIP3    H2 6160   4.680   0.123   1.327  0.3493 -1.1153  2.1720
 1911TIP3   OH2 6161   5.326   5.925   0.273  0.5280 -0.7717  0.1283
 1911TIP3    H1 6162   5.415   5.961   0.282 -0.3871  1.1478  1.9519
 1911TIP3    H2 6163   5.323   5.854   0.338  0.1712  0.3786  1.4046
 1912TIP3   OH2 6164   4.391   4.530   4.970 -0.0722 -0.5667 -0.2696
 1912TIP3    H1 6165   4.422   4.600   4.913 -0.2246  0.3986  0.8024
 1912TIP3    H2 6166   4.452   4.458   4.954 -0.3612 -0.4669 -1.9332
 1913TIP3   OH2 6167   0.457   0.913   1.536 -0.0949 -0.1857 -0.0818
 1913TIP3    H1 6168   0.474   0.942   1.625 -2.8708  0.7258  0.2005
 1913TIP3    H2 6169   0.476   0.990   1.482 -0.7204  0.0082 -0.0292
 1914TIP3   OH2 6170   0.216   5.767   1.687  0.4789  0.6346  0.7665
 1914TIP3    H1 6171   0.282   5.701   1.709 -0.0382  0.4959  1.9838
 1914TIP3    H2 6172   0.252   5.849   1.721  1.0885  0.9720 -0.6818
 1915TIP3   OH2 6173   0.304   4.795   1.945 -0.1636  0.7657  0.5388
 1915TIP3    H1 6174   0.362   4.730   1.985  0.6173  1.0862 -0.0510
 1915TIP3    H2 6175   0.364   4.860   1.908 -0.9306  1.5684  0.7123
 1916TIP3   OH2 6176   5.157   3.538   3.679  0.1044 -0.4903 -0.5715
 1916TIP3    H1 6177   5.203   3.462   3.643  1.2955  0.4774 -1.1261
 1916TIP3    H2 6178   5.223   3.584   3.731 -0.2853  0.8100 -1.2153
 1917TIP3   OH2 6179   3.766   0.456   3.084 -0.2404 -0.1686 -0.2145
 1917TIP3    H1 6180   3.704   0.387   3.061 -0.8214 -0.1795  1.3465
 1917TIP3    H2 6181   3.721   0.537   3.061  0.6898 -0.3004 -2.6382
 1918TIP3   OH2 6182   2.978   6.059   4.677 -0.1450  0.5411  0.3801
 1918TIP3    H1 6183   3.054   6.114   4.691 -0.7239  1.4040  0.2200
 1918TIP3    H2 6184   2.990   6.024   4.588 -0.5301  1.6650 -0.1307
 1919TIP3   OH2 6185   3.411   0.667   0.446  0.3000 -0.5899  0.0411
 1919TIP3    H1 6186   3.357   0.683   0.368  1.8553 -1.5382 -1.2691
 1919TIP3    H2 6187   3.436   0.575   0.439  2.0102 -0.1907  0.6484
 1920TIP3   OH2 6188   3.014   0.164   3.773 -0.4659 -0.0074  0.6992
 1920TIP3    H1 6189   3.048   0.215   3.700 -1.0556  0.4726  0.7476
 1920TIP3    H2 6190   2.919   0.176   3.768 -0.6064 -1.0339  0.7648
 1921TIP3   OH2 6191   2.173   4.397   0.937  0.0157 -0.1169 -0.0262
 1921TIP3    H1 6192   2.141   4.352   1.015  0.9320 -0.6022  0.0740
 1921TIP3    H2 6193   2.150   4.489   0.951  2.8308  0.2980  2.2034
 1922TIP3   OH2 6194   3.330   4.154   5.731 -0.1647  0.3524  0.1292
 1922TIP3    H1 6195   3.254   4.098   5.749  1.0292 -1.8481 -1.4057
 1922TIP3    H2 6196   3.404   4.107   5.768  0.7912  1.1873 -0.7040
 1923TIP3   OH2 6197   4.953   0.630   3.682 -0.3678 -0.6370 -0.0644
 1923TIP3    H1 6198   4.894   0.581   3.739  0.0801 -2.0580 -0.7896
 1923TIP3    H2 6199   4.971   0.712   3.729 -2.5470 -0.3775  0.3590
 1924TIP3   OH2 6200   4.009   5.580   5.876  0.2165 -0.4018 -0.5616
 1924TIP3    H1 6201   4.102   5.597   5.889  0.2985 -0.3204 -1.2167
 1924TIP3    H2 6202   4.001   5.485   5.878  0.6755 -0.5141 -2.7653
 1925TIP3   OH2 6203   5.475   2.354   3.036 -0.1763  0.2875 -0.1821
 1925TIP3    H1 6204   5.539   2.286   3.014 -0.5227  0.1175 -0.6707
 1925TIP3    H2 6205   5.400   2.306   3.071  0.4748  0.5674  1.6924
 1926TIP3   OH2 6206   5.547   6.028   5.432 -0.0241  0.0406 -0.1632
 1926TIP3    H1 6207   5.574   6.050   5.343  0.9564 -2.2507 -0.4590
 1926TIP3    H2 6208   5.578   6.102   5.485  2.5376 -0.1907 -1.2387
 1927TIP3   OH2 6209   4.331   5.932   5.932  0.1312  0.1772 -0.1310
 1927TIP3    H1 6210   4.328   5.947   6.027 -1.9894 -3.8238  0.5486
 1927TIP3    H2 6211   4.384   6.004   5.898  1.0325  1.6562  4.1046
 1928TIP3   OH2 6212   5.103   3.703   0.117 -0.1556 -0.1547 -0.0425
 1928TIP3    H1 6213   5.084   3.795   0.100 -0.5054 -0.6004 -2.1642
 1928TIP3    H2 6214   5.051   3.682   0.195 -0.2919  1.3438  0.2864
 1929TIP3   OH2 6215   1.671   4.401   2.354  0.7823 -0.4851 -0.4171
 1929TIP3    H1 6216   1.621   4.482   2.357  1.5890 -0.0281  1.3432
 1929TIP3    H2 6217   1.761   4.426   2.376  0.9836 -1.8731  0.4688
 1930TIP3   OH2 6218   6.053   4.978   2.215  0.1093  0.1188  0.9388
 1930TIP3    H1 6219   6.069   4.992   2.122 -2.3326  0.9335  0.6047
 1930TIP3    H2 6220   6.061   5.065   2.254 -0.5246  0.0504  1.2236
 1931TIP3   OH2 6221   4.289   0.443   0.170  0.1845  0.2604  0.2368
 1931TIP3    H1 6222   4.379   0.423   0.145  0.3416 -0.2916  1.2004
 1931TIP3    H2 6223   4.291   0.446   0.265 -0.9966 -0.6718  0.3070
 1932TIP3   OH2 6224   4.030   3.810   5.820  0.0887  0.2386 -0.1686
 1932TIP3    H1 6225   4.055   3.751   5.749  2.3187 -0.8765  1.4725
 1932TIP3    H2 6226   4.093   3.792   5.890 -1.8784  1.4720  2.0147
 1933TIP3   OH2 6227   0.581   0.633   1.069 -0.0598 -0.1701  0.5190
 1933TIP3    H1 6228   0.633   0.699   1.115 -1.3542  0.0240  1.7379
 1933TIP3    H2 6229   0.590   0.554   1.122 -2.9072  0.4962  2.0770
 1934TIP3   OH2 6230   3.255   4.865   0.404  0.0900 -0.2971 -0.0765
 1934TIP3    H1 6231   3.191   4.794   0.393  0.4983 -0.9449  1.5435
 1934TIP3    H2 6232   3.203   4.945   0.400 -0.6692 -0.7709  0.1098
 1935TIP3   OH2 6233   5.269   2.307   5.159 -0.2915  0.3553  0.4086
 1935TIP3    H1 6234   5.320   2.248   5.214  3.2370  1.1082 -1.8980
 1935TIP3    H2 6235   5.262   2.388   5.209  0.2719  0.0436  0.9907
 1936TIP3   OH2 6236   2.304   3.709   1.411  0.6645 -0.1611 -0.1364
 1936TIP3    H1 6237   2.251   3.629   1.418  1.2532 -0.6815 -1.5785
 1936TIP3    H2 6238   2.243   3.776   1.382  0.3157 -0.2383  0.4065
 1937TIP3   OH2 6239   4.882   5.671   1.643 -0.0753  0.5855 -0.0762
 1937TIP3    H1 6240   4.964   5.628   1.618  0.5687  1.5631  0.3467
 1937TIP3    H2 6241   4.820   5.644   1.576  0.7040  0.2110 -0.6601
 1938TIP3   OH2 6242   3.986   5.434   3.998 -0.8175  0.4295 -1.0010
 1938TIP3    H1 6243   3.951   5.446   3.910  1.4832 -0.1074 -2.0395
 1938TIP3    H2 6244   4.058   5.372   3.987 -2.0345 -1.5623  1.6542
 1939TIP3   OH2 6245   5.797   0.584   3.128 -0.2501 -0.2100 -0.1772
 1939TIP3    H1 6246   5.789   0.622   3.216 -1.0020 -2.4748  0.7767
 1939TIP3    H2 6247   5.707   0.572   3.099 -0.0053  0.5667 -1.3056
 1940TIP3   OH2 6248   4.930   5.880   4.545 -0.3726 -0.0899 -0.0689
 1940TIP3    H1 6249   4.889   5.923   4.470  0.5175  1.3672  0.2468
 1940TIP3    H2 6250   5.003   5.830   4.507 -0.2250  0.2489 -0.2328
 1941TIP3   OH2 6251   5.244   4.057   2.724  0.1193 -0.2789  0.5154
 1941TIP3    H1 6252   5.303   4.065   2.649  0.1041  1.4204  0.6569
 1941TIP3    H2 6253   5.156   4.061   2.686  0.1091  0.1932  0.5918
 1942TIP3   OH2 6254   2.820   3.907   0.222 -0.0613 -0.6682 -0.6188
 1942TIP3    H1 6255   2.858   3.826   0.187 -0.6212 -1.3170  0.2571
 1942TIP3    H2 6256   2.737   3.917   0.174 -0.7693 -1.4912  0.4149
 1943TIP3   OH2 6257   4.076   4.083   0.055  0.1747 -0.4733 -0.0209
 1943TIP3    H1 6258   4.153   4.084  -0.002  0.3467  1.1371  0.2100
 1943TIP3    H2 6259   4.021   4.154   0.023 -0.6558 -0.8233  0.5916
 1944TIP3   OH2 6260   3.472   1.880   1.895 -0.7393 -0.2310 -0.4644
 1944TIP3    H1 6261   3.549   1.925   1.928 -0.8439 -1.3906  1.5088
 1944TIP3    H2 6262   3.405   1.948   1.886 -0.1651  0.4014  0.0445
 1945TIP3   OH2 6263   4.851   4.103   1.412  0.5266 -0.7099 -0.3244
 1945TIP3    H1 6264   4.865   4.018   1.370  0.3547 -0.9697  0.1451
 1945TIP3    H2 6265   4.907   4.164   1.362  0.8039 -1.1344 -0.5321
 1946TIP3   OH2 6266   4.315   0.993   4.073  0.7014 -0.4675  0.0828
 1946TIP3    H1 6267   4.326   1.081   4.038  0.4769 -0.3898  0.2091
 1946TIP3    H2 6268   4.256   0.950   4.011 -2.3248  0.6691  2.0704
 1947TIP3   OH2 6269   5.099   5.312   2.601 -0.3609 -0.1416 -0.3641
 1947TIP3    H1 6270   5.020   5.363   2.582  0.3864  0.3182 -2.3265
 1947TIP3    H2 6271   5.163   5.341   2.536  1.0724 -1.3505  0.4645
 1948TIP3   OH2 6272   5.522   5.551   3.860 -0.0908 -0.0116  0.1422
 1948TIP3    H1 6273   5.590   5.484   3.864 -1.2126 -1.2542 -0.9638
 1948TIP3    H2 6274   5.565   5.628   3.823  0.6264 -0.9164 -0.9422
 1949TIP3   OH2 6275   3.051   5.090   0.373 -0.5511 -0.1359  0.3338
 1949TIP3    H1 6276   2.960   5.095   0.342 -0.2237 -1.8049 -0.9600
 1949TIP3    H2 6277   3.096   5.159   0.325 -0.5393 -1.2114 -1.2532
 1950TIP3   OH2 6278   1.730   3.626   3.233 -0.0453  0.6301  0.1460
 1950TIP3    H1 6279   1.673   3.619   3.156  0.5159  1.1014 -0.3137
 1950TIP3    H2 6280   1.756   3.718   3.235  1.8218  0.1305 -0.4484
 1951TIP3   OH2 6281   5.088   4.390   3.513 -0.1288 -0.1073  0.3039
 1951TIP3    H1 6282   5.086   4.475   3.556  3.8078 -0.0306  0.4760
 1951TIP3    H2 6283   5.143   4.402   3.436  1.2152 -2.6532  0.7970
 1952TIP3   OH2 6284   5.990   5.317   0.996  0.0703 -0.1443 -0.2441
 1952TIP3    H1 6285   5.999   5.248   1.062  0.6605  1.2684  1.1905
 1952TIP3    H2 6286   6.070   5.312   0.944  0.6988  0.2669  0.6657
 1953TIP3   OH2 6287   5.310   1.697   3.258 -0.3533 -0.2982  0.0825
 1953TIP3    H1 6288   5.231   1.751   3.253 -0.3012 -0.3326 -1.1465
 1953TIP3    H2 6289   5.365   1.741   3.324 -0.2289  1.2697 -1.0351
 1954TIP3   OH2 6290   5.366   4.224   3.640  0.0987 -0.1261 -0.4262
 1954TIP3    H1 6291   5.330   4.313   3.643 -0.6296 -0.3811 -1.2340
 1954TIP3    H2 6292   5.298   4.173   3.596  0.8920 -0.8967 -0.7662
 1955TIP3   OH2 6293   0.458   0.623   0.660  0.3392  0.1623 -0.1662
 1955TIP3    H1 6294   0.426   0.701   0.615  0.0703  0.2758  0.2283
 1955TIP3    H2 6295   0.500   0.571   0.591  0.9061  0.8617 -0.3467
 1956TIP3   OH2 6296   2.890   3.459   2.148 -0.2515  0.9337 -0.2135
 1956TIP3    H1 6297   2.804   3.480   2.184  0.0825  0.2191  1.0559
 1956TIP3    H2 6298   2.881   3.473   2.054 -2.3890 -1.2522 -0.3797
 1957TIP3   OH2 6299   3.223   2.486   0.827 -0.4683 -0.7576  0.3740
 1957TIP3    H1 6300   3.276   2.422   0.875 -1.0630 -1.3105  0.2964
 1957TIP3    H2 6301   3.159   2.433   0.779 -0.0306 -0.1891 -0.8483
 1958TIP3   OH2 6302   0.456   4.248   4.733  0.2513  0.1806  0.1751
 1958TIP3    H1 6303   0.369   4.275   4.704  0.3512 -0.2770 -0.5573
 1958TIP3    H2 6304   0.450   4.153   4.742  1.4824 -0.2097 -2.6636
 1959TIP3   OH2 6305   6.007   0.041   1.178 -0.0182 -0.6110  0.4260
 1959TIP3    H1 6306   6.103   0.046   1.169 -0.0922  0.8518  0.3336
 1959TIP3    H2 6307   5.976   0.124   1.144 -1.4483 -1.6880 -0.9979
 1960TIP3   OH2 6308   4.004   3.739   2.521 -0.1940  0.5456 -0.5266
 1960TIP3    H1 6309   3.994   3.828   2.485  2.0186  1.4388  0.9366
 1960TIP3    H2 6310   4.085   3.707   2.482  0.4465  0.2199  1.0510
 1961TIP3   OH2 6311   5.187   4.561   0.840  0.2421  0.7908  0.0566
 1961TIP3    H1 6312   5.173   4.624   0.911 -0.8977 -0.9285  1.3966
 1961TIP3    H2 6313   5.106   4.562   0.790 -0.7490 -1.3538  1.5315
 1962TIP3   OH2 6314   3.345   3.636   2.249  0.2474  0.3053  1.0764
 1962TIP3    H1 6315   3.380   3.710   2.299  0.4236  0.9779 -0.0370
 1962TIP3    H2 6316   3.256   3.624   2.283  0.2661  0.9437  1.3476
 1963TIP3   OH2 6317   5.809   0.121   1.512  0.2827 -0.0370  0.1122
 1963TIP3    H1 6318   5.790   0.101   1.603  1.8095 -1.8337  0.0644
 1963TIP3    H2 6319   5.885   0.066   1.490  0.1765  0.6407 -2.1186
 1964TIP3   OH2 6320   4.720   3.786   0.634  0.1823  0.7511  0.1032
 1964TIP3    H1 6321   4.739   3.760   0.724  0.7155 -0.5763 -0.3653
 1964TIP3    H2 6322   4.804   3.817   0.600 -0.0967  1.5850  0.1636
 1965TIP3   OH2 6323   2.542   5.506   0.946  0.7128  0.3180 -1.1529
 1965TIP3    H1 6324   2.539   5.428   0.890  0.4370  0.8885 -1.9479
 1965TIP3    H2 6325   2.613   5.488   1.008  0.2079 -0.8434 -0.8985
 1966TIP3   OH2 6326   1.863   1.123   5.684  0.6826  0.2535  0.0822
 1966TIP3    H1 6327   1.857   1.043   5.632 -1.3368  1.4266 -1.5343
 1966TIP3    H2 6328   1.785   1.122   5.739  0.3044  1.4233 -0.4175
 1967TIP3   OH2 6329   2.160   5.866   0.368 -0.0877  0.1290 -0.0459
 1967TIP3    H1 6330   2.111   5.826   0.297 -0.2120 -1.5197  0.9335
 1967TIP3    H2 6331   2.165   5.797   0.435  1.0305  1.2523  1.0485
 1968TIP3   OH2 6332   0.172   6.036   1.142  0.1981  0.1037 -0.2676
 1968TIP3    H1 6333   0.201   6.000   1.058 -0.7511 -1.5756  0.1147
 1968TIP3    H2 6334   0.209   5.977   1.208  0.8899  1.3800  0.5053
 1969TIP3   OH2 6335   5.054   1.153   1.919 -0.8284 -0.2913  0.3811
 1969TIP3    H1 6336   5.117   1.190   1.982  1.1751 -0.4092 -1.4816
 1969TIP3    H2 6337   5.049   1.218   1.849 -0.5190 -1.6171 -0.8959
 1970TIP3   OH2 6338   0.249   4.003   3.103 -0.5555  0.4585 -0.0037
 1970TIP3    H1 6339   0.325   4.054   3.074 -0.5082  0.3148 -0.1275
 1970TIP3    H2 6340   0.275   3.969   3.189 -0.4171  0.2674 -0.1237
 1971TIP3   OH2 6341   0.357   0.462   4.350 -0.1082  0.5956  0.7657
 1971TIP3    H1 6342   0.284   0.494   4.404 -1.0835  0.2391 -0.3163
 1971TIP3    H2 6343   0.403   0.541   4.324 -0.5935  0.8894  0.7836
 1972TIP3   OH2 6344   4.688   4.617   0.489 -0.5388 -0.2321 -0.5402
 1972TIP3    H1 6345   4.652   4.678   0.555 -0.6344 -1.6156  0.7084
 1972TIP3    H2 6346   4.771   4.657   0.463 -2.3009  2.3111 -2.4469
 1973TIP3   OH2 6347   0.267   4.179   0.795 -0.2395 -0.1616 -0.0685
 1973TIP3    H1 6348   0.210   4.253   0.815 -0.9160  0.0713 -2.7313
 1973TIP3    H2 6349   0.356   4.216   0.795 -0.3080  0.0225  1.4553
 1974TIP3   OH2 6350   5.812   6.038   0.514 -0.0413  0.5492  0.7275
 1974TIP3    H1 6351   5.869   5.985   0.458  0.4244  0.8810  0.8818
 1974TIP3    H2 6352   5.811   6.124   0.472 -0.5450  0.5041  0.6469
 1975TIP3   OH2 6353   5.466   4.069   5.477  0.0889  0.5046 -0.1270
 1975TIP3    H1 6354   5.389   4.113   5.514 -1.8187 -2.1922 -0.7603
 1975TIP3    H2 6355   5.527   4.060   5.550 -1.7062 -0.5987  1.2537
 1976TIP3   OH2 6356   0.934   5.633   1.925  0.5340  0.0711 -0.0651
 1976TIP3    H1 6357   0.981   5.649   2.007  0.9548  0.4054 -0.3746
 1976TIP3    H2 6358   0.968   5.549   1.894  0.6631  0.1382 -0.1042
 1977TIP3   OH2 6359   1.031   4.912   3.987  0.0939 -0.6779  0.3060
 1977TIP3    H1 6360   0.962   4.977   3.999  0.0928 -0.8154  1.0222
 1977TIP3    H2 6361   1.067   4.932   3.900  1.3281  1.4642  1.2874
 1978TIP3   OH2 6362   4.532   0.233   1.406  0.1474  0.3873  0.1153
 1978TIP3    H1 6363   4.441   0.204   1.395  0.1249  0.4216  0.2094
 1978TIP3    H2 6364   4.531   0.282   1.488  0.7448 -1.6520  1.3872
 1979TIP3   OH2 6365   2.914   5.587   2.998  0.1042 -1.1429  0.4939
 1979TIP3    H1 6366   2.865   5.599   2.917 -0.4174 -0.8384  0.8477
 1979TIP3    H2 6367   2.961   5.505   2.986  0.6726 -0.6885 -0.4328
 1980TIP3   OH2 6368   4.631   4.921   0.352 -0.0500 -0.6938  0.0880
 1980TIP3    H1 6369   4.658   4.920   0.443 -0.3336 -1.1185  0.1667
 1980TIP3    H2 6370   4.683   4.991   0.312  0.1774 -0.6066  0.5398
 1981TIP3   OH2 6371   4.157   4.649   0.536 -0.6213  0.2507 -0.6533
 1981TIP3    H1 6372   4.130   4.657   0.444 -0.7175  2.8250 -0.4378
 1981TIP3    H2 6373   4.075   4.651   0.585 -0.4466  1.2870 -0.3900
 1982TIP3   OH2 6374   4.021   4.131   0.917 -0.2444  0.2334  0.4336
 1982TIP3    H1 6375   4.091   4.197   0.918 -1.2106  1.2673  0.3327
 1982TIP3    H2 6376   4.027   4.091   0.831  0.1537  0.3954  0.3846
 1983TIP3   OH2 6377   6.087   4.391   1.409 -0.1809 -0.6073  0.0795
 1983TIP3    H1 6378   6.162   4.348   1.450 -0.7947 -2.3268 -0.5190
 1983TIP3    H2 6379   6.098   4.373   1.315 -0.9139 -0.2045 -0.0888
 1984TIP3   OH2 6380   5.772   4.705   1.825  1.0605  0.3727  0.2168
 1984TIP3    H1 6381   5.740   4.683   1.913  1.8208 -1.0378  0.1558
 1984TIP3    H2 6382   5.762   4.800   1.819  0.3066  0.3868  1.5550
 1985TIP3   OH2 6383   3.950   0.694   1.890 -0.1779  0.1461  0.2998
 1985TIP3    H1 6384   3.990   0.753   1.826  0.1525  0.4840  0.8109
 1985TIP3    H2 6385   4.021   0.672   1.950 -0.0823 -1.4895 -0.4034
 1986TIP3   OH2 6386   1.334   3.759   3.537  0.0187 -0.3222  0.4538
 1986TIP3    H1 6387   1.411   3.720   3.579  1.9393  3.3338  0.5539
 1986TIP3    H2 6388   1.355   3.759   3.444 -1.7890 -3.2179 -0.0140
 1987TIP3   OH2 6389   4.844   1.992   2.905 -0.1013 -0.7574 -0.6606
 1987TIP3    H1 6390   4.798   1.957   2.982  1.4442  1.8820  1.5598
 1987TIP3    H2 6391   4.897   1.918   2.875 -0.9830 -1.9499  0.5764
 1988TIP3   OH2 6392   4.176   4.699   5.492 -0.5138  0.0276 -0.4587
 1988TIP3    H1 6393   4.200   4.608   5.473  0.1029  0.4951 -1.9695
 1988TIP3    H2 6394   4.139   4.696   5.581  0.3963 -1.5306 -0.1166
 1989TIP3   OH2 6395   4.023   3.332   1.615 -0.4939  0.7616  0.1662
 1989TIP3    H1 6396   3.988   3.414   1.648 -0.4059  1.8852 -2.4231
 1989TIP3    H2 6397   3.946   3.282   1.586 -0.4642  0.3756  0.7430
 1990TIP3   OH2 6398   5.044   0.310   3.970  0.4496  0.3157 -0.1505
 1990TIP3    H1 6399   5.038   0.232   4.025  0.3900  0.6160  0.2784
 1990TIP3    H2 6400   4.959   0.352   3.979  0.6933  0.7540  0.1163
 1991TIP3   OH2 6401   5.647   3.475   1.510 -0.0439 -0.2855 -0.2439
 1991TIP3    H1 6402   5.712   3.545   1.512 -0.4223  0.0807 -0.6394
 1991TIP3    H2 6403   5.675   3.418   1.438  0.5361 -0.8033  0.3966
 1992TIP3   OH2 6404   3.171   3.873   2.124 -0.2787 -0.3452  0.1296
 1992TIP3    H1 6405   3.221   3.936   2.175 -1.1897  0.2272  0.3227
 1992TIP3    H2 6406   3.124   3.821   2.189  0.8880 -1.5992  0.0025
 1993TIP3   OH2 6407   4.422   0.226   6.079  0.6791 -0.9060  0.1432
 1993TIP3    H1 6408   4.415   0.198   5.988  0.3283  0.1447 -0.1547
 1993TIP3    H2 6409   4.332   0.230   6.110  0.6907  0.4161  0.0244
 1994TIP3   OH2 6410   3.127   1.741   2.513  0.0384 -0.0167 -0.5452
 1994TIP3    H1 6411   3.081   1.677   2.568  0.5101  0.6151  0.6020
 1994TIP3    H2 6412   3.059   1.804   2.487  0.0960  0.5286  0.5774
 1995TIP3   OH2 6413   5.291   4.586   1.492  0.5214 -0.4537 -0.4942
 1995TIP3    H1 6414   5.225   4.607   1.427 -1.8587 -1.9719  1.3529
 1995TIP3    H2 6415   5.287   4.659   1.555  0.9748 -0.2984 -0.6415
 1996TIP3   OH2 6416   4.726   4.108   2.465 -0.0345  0.1650 -0.3285
 1996TIP3    H1 6417   4.780   4.185   2.482 -0.0880  0.0794  0.2437
 1996TIP3    H2 6418   4.673   4.098   2.544  1.8173 -1.9684  0.6902
 1997TIP3   OH2 6419   0.741   1.211   1.830 -0.2854  0.1138 -0.2211
 1997TIP3    H1 6420   0.707   1.294   1.864 -1.8452 -0.1886 -1.0088
 1997TIP3    H2 6421   0.746   1.224   1.736  3.4785  0.7450 -0.0107
 1998TIP3   OH2 6422   4.984   0.604   1.916  0.0773  0.2430  0.2920
 1998TIP3    H1 6423   4.907   0.585   1.969 -0.4006 -0.6947 -0.7177
 1998TIP3    H2 6424   4.964   0.566   1.830  2.0219 -0.7695  0.2578
 1999TIP3   OH2 6425   5.583   5.109   1.737  0.0164  0.0021 -0.3993
 1999TIP3    H1 6426   5.534   5.136   1.660 -1.0459 -0.0730  0.2376
 1999TIP3    H2 6427   5.528   5.041   1.778  1.0634 -0.7094 -0.1521
 2000TIP3   OH2 6428   3.902   4.307   3.505 -0.0335  0.5326  0.2768
 2000TIP3    H1 6429   3.910   4.243   3.576 -0.7241 -0.3812 -0.4558
 2000TIP3    H2 6430   3.922   4.257   3.426 -0.9515  1.1307 -0.3345
 2001TIP3   OH2 6431   5.966   0.276   1.070  0.5209 -0.7886  0.1350
 2001TIP3    H1 6432   5.875   0.303   1.060  1.2875  1.7066 -0.1990
 2001TIP3    H2 6433   6.001   0.333   1.138  2.4336 -0.2523 -1.2765
 2002TIP3   OH2 6434   4.814   6.031   5.595 -0.4432  0.5782  0.0782
 2002TIP3    H1 6435   4.872   6.067   5.663 -1.5261  0.4737  1.0742
 2002TIP3    H2 6436   4.850   6.064   5.513  0.7521  0.9009  0.7134
 2003TIP3   OH2 6437   4.593   0.747   1.129 -0.2655 -0.1528  0.0706
 2003TIP3    H1 6438   4.672   0.800   1.116  0.5035 -1.3956 -0.4150
 2003TIP3    H2 6439   4.559   0.776   1.214  0.8492  0.2353  0.3969
 2004TIP3   OH2 6440   4.055   5.831   1.308 -0.0601 -0.4122  0.6489
 2004TIP3    H1 6441   4.088   5.807   1.395  0.4248 -0.0199  0.5774
 2004TIP3    H2 6442   4.056   5.927   1.308  1.0765 -0.4125 -0.2196
 2005TIP3   OH2 6443   4.320   5.221   0.847 -0.6144 -0.3163  0.0598
 2005TIP3    H1 6444   4.365   5.292   0.800 -1.7010  0.4630  0.1587
 2005TIP3    H2 6445   4.384   5.190   0.911  0.0605  0.2171 -0.3413
 2006TIP3   OH2 6446   2.598   2.382   1.050 -0.9958 -0.4985 -0.5652
 2006TIP3    H1 6447   2.533   2.452   1.051 -0.5405 -0.0702 -0.4817
 2006TIP3    H2 6448   2.605   2.356   0.958 -1.4175 -0.6758 -0.5492
 2007TIP3   OH2 6449   5.914   5.395   2.950 -0.4810  0.3308  0.0443
 2007TIP3    H1 6450   5.983   5.453   2.919 -0.3409  0.4559  0.5889
 2007TIP3    H2 6451   5.939   5.373   3.040 -0.2846 -0.9529 -0.3094
 2008TIP3   OH2 6452   0.626   5.860   3.410 -0.2280  0.2058 -0.0614
 2008TIP3    H1 6453   0.712   5.821   3.429 -1.1962 -2.3802 -0.8380
 2008TIP3    H2 6454   0.565   5.813   3.466 -1.6092 -0.2747 -1.9227
 2009TIP3   OH2 6455   5.151   2.733   2.296  0.0812  0.0757  0.5920
 2009TIP3    H1 6456   5.075   2.675   2.306  0.0198 -0.3052 -1.7763
 2009TIP3    H2 6457   5.225   2.679   2.322 -0.1198 -0.6710 -0.3477
 2010TIP3   OH2 6458   0.053   5.727   1.183  0.3213 -0.9545  0.1026
 2010TIP3    H1 6459   0.035   5.732   1.277 -2.7893  0.0161 -0.4748
 2010TIP3    H2 6460  -0.032   5.706   1.144  1.1428  0.6164 -2.6561
 2011TIP3   OH2 6461   4.539   5.031   0.945 -0.2948 -0.0548  0.1430
 2011TIP3    H1 6462   4.607   5.080   0.897  2.3747 -0.6159  3.1245
 2011TIP3    H2 6463   4.542   4.943   0.908  0.5575 -0.0517  0.1872
 2012TIP3   OH2 6464   3.778   4.293   0.792 -0.5890 -0.6762 -0.5547
 2012TIP3    H1 6465   3.858   4.256   0.829  0.5703  1.5670 -0.7515
 2012TIP3    H2 6466   3.717   4.299   0.865  1.2161  2.4189  0.7947
 2013TIP3   OH2 6467   4.251   3.678   5.938 -0.0338 -0.5467  0.5567
 2013TIP3    H1 6468   4.243   3.645   6.027  2.9908 -2.0381  0.3297
 2013TIP3    H2 6469   4.285   3.605   5.887  0.4604  0.9597 -1.3640
 2014TIP3   OH2 6470   3.873   2.952   1.344  0.1651  0.1092 -0.0995
 2014TIP3    H1 6471   3.929   2.879   1.317 -0.5594 -0.8907  1.0513
 2014TIP3    H2 6472   3.900   3.025   1.288  0.8832 -1.0416 -1.2902
 2015TIP3   OH2 6473   5.423   3.340   5.179  0.1620  0.5324  0.1484
 2015TIP3    H1 6474   5.510   3.350   5.216 -0.1718  0.5175  0.9454
 2015TIP3    H2 6475   5.375   3.287   5.243 -0.4659  0.6308 -0.2297
 2016TIP3   OH2 6476   3.956   0.362   0.095  0.2178  0.0224  0.1591
 2016TIP3    H1 6477   4.028   0.326   0.147  0.7158  0.0410 -0.5201
 2016TIP3    H2 6478   3.896   0.288   0.085 -0.0594  0.1099  1.0545
 2017TIP3   OH2 6479   5.201   5.630   4.994 -0.9793  0.0582  0.5455
 2017TIP3    H1 6480   5.243   5.544   4.998  0.7413  0.8259 -0.7116
 2017TIP3    H2 6481   5.110   5.611   4.969 -0.7784 -1.4281  0.8873
 2018TIP3   OH2 6482   0.824   3.338   4.614  0.8310 -0.1676  0.0248
 2018TIP3    H1 6483   0.762   3.409   4.635  0.0999 -0.8182  0.0850
 2018TIP3    H2 6484   0.897   3.382   4.570  0.7904  0.7431  0.8589
 2019TIP3   OH2 6485   5.800   3.762   0.387 -0.1726 -0.2283 -0.6583
 2019TIP3    H1 6486   5.788   3.815   0.308  0.6735 -1.0246 -1.3326
 2019TIP3    H2 6487   5.711   3.744   0.417 -0.4927  0.3595 -1.2518
 2020TIP3   OH2 6488   5.557   5.214   3.109 -0.5895 -0.2907 -0.1600
 2020TIP3    H1 6489   5.566   5.286   3.048  0.4749 -0.0459  0.2811
 2020TIP3    H2 6490   5.595   5.246   3.191 -2.2523 -0.5028  0.7260
 2021TIP3   OH2 6491   3.901   2.779   2.536  0.2456  0.7539 -0.0381
 2021TIP3    H1 6492   3.945   2.823   2.608  1.8092 -0.0619 -0.4825
 2021TIP3    H2 6493   3.971   2.740   2.484 -0.9887 -0.6056 -0.7414
 2022TIP3   OH2 6494   4.080   2.776   1.280 -0.0126  0.1647  1.0006
 2022TIP3    H1 6495   4.060   2.697   1.330 -0.3115 -1.2241 -1.2487
 2022TIP3    H2 6496   4.136   2.746   1.209  0.0647  2.0145  0.2507
 2023TIP3   OH2 6497   1.429   0.956   1.786  0.0101  0.2555 -0.1845
 2023TIP3    H1 6498   1.365   0.926   1.851  1.5870 -0.2155  1.1806
 2023TIP3    H2 6499   1.457   1.042   1.816  2.1198 -0.7381  0.8268
 2024TIP3   OH2 6500   5.587   2.525   2.500 -0.1021 -0.1058  0.0805
 2024TIP3    H1 6501   5.618   2.610   2.468 -0.9422  0.0634 -0.2916
 2024TIP3    H2 6502   5.663   2.468   2.493  0.0867  0.2694 -0.9681
 2025TIP3   OH2 6503   5.425   4.623   1.249 -0.2378  0.1506 -0.4739
 2025TIP3    H1 6504   5.504   4.665   1.281  0.6498 -0.9084 -1.2481
 2025TIP3    H2 6505   5.365   4.625   1.323  0.8949 -0.0082  0.4619
 2026TIP3   OH2 6506   0.941   5.233   1.789 -0.2323  0.4857 -0.2912
 2026TIP3    H1 6507   0.913   5.166   1.727  0.5739  0.7221 -0.9238
 2026TIP3    H2 6508   0.908   5.204   1.874 -0.9794 -0.0568 -0.7658
 2027TIP3   OH2 6509   1.042   5.147   3.770  0.1226  0.6206 -0.2284
 2027TIP3    H1 6510   0.948   5.149   3.785  0.1528  0.1133  0.0607
 2027TIP3    H2 6511   1.059   5.216   3.706 -1.0323 -1.9943 -3.5404
 2028TIP3   OH2 6512   1.016   2.397   2.416  0.3928  0.2678  0.1237
 2028TIP3    H1 6513   0.966   2.441   2.347  1.3026  1.5186  0.2524
 2028TIP3    H2 6514   1.084   2.348   2.369 -0.7388 -1.1952 -0.0318
 2029TIP3   OH2 6515   3.482   5.534   0.354 -0.3231  0.3879  0.8169
 2029TIP3    H1 6516   3.555   5.482   0.389 -1.1857 -2.0569 -0.8714
 2029TIP3    H2 6517   3.524   5.603   0.303  0.8569 -2.1503 -1.7511
 2030TIP3   OH2 6518   0.143   4.587   6.086  0.3262  0.7025 -0.0354
 2030TIP3    H1 6519   0.118   4.571   5.995  1.6641 -1.8931  0.0119
 2030TIP3    H2 6520   0.225   4.637   6.081  1.8875 -1.7947 -0.3418
 2031TIP3   OH2 6521   0.254   4.173   2.383 -0.2020 -0.5347  0.3383
 2031TIP3    H1 6522   0.278   4.250   2.434 -2.9887 -0.3920  1.5218
 2031TIP3    H2 6523   0.282   4.098   2.436 -0.7757 -0.3716  0.8655
 2032TIP3   OH2 6524   0.596   1.451   1.899  0.0485 -0.5194  0.0359
 2032TIP3    H1 6525   0.554   1.516   1.843  1.5195 -0.8737 -1.5150
 2032TIP3    H2 6526   0.525   1.414   1.950 -1.0542  1.1062 -0.2813
 2033TIP3   OH2 6527   0.578   4.304   2.151  0.8206 -0.2097 -0.0972
 2033TIP3    H1 6528   0.611   4.320   2.063  2.2542 -1.2115  0.2365
 2033TIP3    H2 6529   0.542   4.215   2.147  1.0456 -0.3255  0.3604
 2034TIP3   OH2 6530   4.109   4.255   2.968 -0.1632 -0.2886 -0.0982
 2034TIP3    H1 6531   4.018   4.259   2.998  0.3308 -2.1232  1.7806
 2034TIP3    H2 6532   4.103   4.221   2.879 -1.3459 -0.1479 -0.0878
 2035TIP3   OH2 6533   0.580   2.406   3.634 -0.1662 -0.2493  0.6689
 2035TIP3    H1 6534   0.487   2.418   3.615 -0.7663 -1.4447  2.6758
 2035TIP3    H2 6535   0.593   2.446   3.720  1.1491 -0.2375  0.4846
 2036TIP3   OH2 6536   0.397   0.329   0.516 -0.6418  1.0655 -0.2797
 2036TIP3    H1 6537   0.387   0.234   0.522  0.6676  0.8127 -1.9510
 2036TIP3    H2 6538   0.314   0.363   0.550 -0.7242 -0.6255  1.3634
 2037TIP3   OH2 6539   0.747   5.236   1.497  1.0115 -0.0947 -0.1301
 2037TIP3    H1 6540   0.788   5.313   1.457  1.3126  0.1039  0.5670
 2037TIP3    H2 6541   0.728   5.263   1.587 -0.3845 -0.2754 -0.3570
 2038TIP3   OH2 6542   6.056   5.283   6.014 -0.6751  0.2599 -0.5896
 2038TIP3    H1 6543   6.036   5.200   6.056  0.5971  0.7433  1.0421
 2038TIP3    H2 6544   5.972   5.314   5.980 -1.2327 -1.4521 -0.8004
 2039TIP3   OH2 6545   1.048   0.267   1.180  0.6976 -0.1132  0.5898
 2039TIP3    H1 6546   1.099   0.238   1.105  0.1153 -0.6331  0.3978
 2039TIP3    H2 6547   1.063   0.200   1.247  0.5883 -0.0511  0.6774
 2040TIP3   OH2 6548   5.937   2.975   1.251  0.4303 -0.0121 -0.2730
 2040TIP3    H1 6549   5.941   3.031   1.173 -0.6442 -1.8881 -1.6917
 2040TIP3    H2 6550   5.845   2.950   1.257  1.2118 -3.1125 -0.7205
 2041TIP3   OH2 6551   1.146   3.865   0.884 -0.0610 -0.5577 -0.6895
 2041TIP3    H1 6552   1.192   3.848   0.802  0.7337  1.2350 -0.6388
 2041TIP3    H2 6553   1.112   3.780   0.912  0.8779 -1.4061 -2.1480
 2042TIP3   OH2 6554   0.813   0.124   1.059 -0.0330 -0.4964  0.0430
 2042TIP3    H1 6555   0.746   0.145   1.124 -0.9915 -0.9911 -0.7768
 2042TIP3    H2 6556   0.880   0.077   1.108 -0.7239 -0.8185  0.6826
 2043TIP3   OH2 6557   5.573   1.756   3.394  0.2258 -0.4754 -0.6331
 2043TIP3    H1 6558   5.606   1.707   3.470  0.5371 -1.0762 -1.1487
 2043TIP3    H2 6559   5.628   1.726   3.321 -0.5320 -0.4235 -1.2286
 2044TIP3   OH2 6560   5.885   3.409   3.042  0.2776 -0.2413  0.5477
 2044TIP3    H1 6561   5.869   3.396   2.948  1.3631 -0.4805  0.3839
 2044TIP3    H2 6562   5.951   3.344   3.064  1.8908  1.4768  0.9071
 2045TIP3   OH2 6563   0.417   2.830   5.406 -0.0249 -0.1664 -0.7992
 2045TIP3    H1 6564   0.336   2.819   5.455 -0.1142 -0.3343 -0.9820
 2045TIP3    H2 6565   0.416   2.923   5.380  0.5617  0.1949  0.4424
 2046TIP3   OH2 6566   0.782   4.471   3.421  0.0147 -0.6605 -0.0638
 2046TIP3    H1 6567   0.698   4.431   3.445 -0.0046  0.8648  2.7181
 2046TIP3    H2 6568   0.758   4.551   3.374 -0.0969 -0.5720  0.1410
 2047TIP3   OH2 6569   0.322   3.926   2.524  0.3112 -0.2117  1.1427
 2047TIP3    H1 6570   0.293   3.835   2.523  0.7484 -0.3490  0.0911
 2047TIP3    H2 6571   0.299   3.958   2.611 -0.7078 -1.0488  1.1892
 2048TIP3   OH2 6572   2.176   0.669   0.834  0.2427  0.7119 -0.1930
 2048TIP3    H1 6573   2.213   0.674   0.746 -0.9005 -1.0165 -0.8056
 2048TIP3    H2 6574   2.189   0.756   0.871  2.3798  0.9341 -1.3891
 2049TIP3   OH2 6575   4.329   4.065   2.877  0.2432 -0.3023  0.1882
 2049TIP3    H1 6576   4.288   4.151   2.872  0.3392 -0.2885 -0.3366
 2049TIP3    H2 6577   4.267   4.006   2.834  0.1795 -0.4973  0.5442
 2050TIP3   OH2 6578   5.480   6.091   0.826  0.3374  0.2535  0.2889
 2050TIP3    H1 6579   5.517   6.175   0.851 -0.7688  0.0494  2.7690
 2050TIP3    H2 6580   5.396   6.112   0.786  0.8778  0.4198 -0.7743
 2051TIP3   OH2 6581   6.035   3.577   1.399  0.2624 -1.0870  0.0469
 2051TIP3    H1 6582   6.117   3.569   1.448  0.6948 -1.5750 -0.7453
 2051TIP3    H2 6583   6.055   3.640   1.330 -0.7390  0.6337  1.3013
 2052TIP3   OH2 6584   0.362   3.973   1.947  0.0903  0.0968 -0.0406
 2052TIP3    H1 6585   0.418   4.016   1.883 -0.4791  2.1195  0.7979
 2052TIP3    H2 6586   0.413   3.897   1.976  2.0798  1.4968  0.1877
 2053TIP3   OH2 6587   5.713   4.012   2.136 -0.4380  0.3407 -0.3783
 2053TIP3    H1 6588   5.643   4.001   2.072 -1.4516  0.6928  0.6594
 2053TIP3    H2 6589   5.751   4.097   2.115 -0.2252  0.0883 -1.0294
 2054TIP3   OH2 6590   5.676   0.809   1.824 -0.0128 -0.4276 -0.1342
 2054TIP3    H1 6591   5.603   0.787   1.882  1.1809  0.6793  1.8603
 2054TIP3    H2 6592   5.715   0.887   1.863  0.7780  0.4320 -2.5242
 2055TIP3   OH2 6593   5.728   2.914   2.213 -0.2264 -0.7297 -0.0214
 2055TIP3    H1 6594   5.799   2.978   2.211  0.8508 -1.8767  0.4976
 2055TIP3    H2 6595   5.652   2.961   2.179  0.6373  0.6959 -0.0230
 2056TIP3   OH2 6596   3.976   4.082   3.701 -0.0178  0.2563  0.2503
 2056TIP3    H1 6597   3.917   4.100   3.774  0.1228 -1.2238  0.7549
 2056TIP3    H2 6598   3.932   4.014   3.651  1.0633 -0.5758  0.4075
 2057TIP3   OH2 6599   1.131   5.165   0.626 -0.1747  0.4763  0.1850
 2057TIP3    H1 6600   1.078   5.095   0.664 -0.6841  1.1794  0.7900
 2057TIP3    H2 6601   1.198   5.183   0.693  1.1227 -0.7135 -0.7599
 2058TIP3   OH2 6602   4.915   0.536   1.651  0.1756 -0.3419  0.2841
 2058TIP3    H1 6603   5.004   0.568   1.662  0.3665 -1.0402  0.7994
 2058TIP3    H2 6604   4.865   0.613   1.623  0.8694  0.1224  0.3140
 2059TIP3   OH2 6605   1.938   5.174   0.159  0.2057  0.2431 -0.3317
 2059TIP3    H1 6606   1.976   5.226   0.087  0.1710  0.7600  0.0238
 2059TIP3    H2 6607   1.850   5.209   0.170  0.3924  0.5131  0.3126
 2060TIP3   OH2 6608   5.228   5.345   5.064 -0.0600 -0.3160 -0.0211
 2060TIP3    H1 6609   5.185   5.294   4.997 -2.6960  0.2516  1.1760
 2060TIP3    H2 6610   5.193   5.312   5.147  2.8676 -0.7872  1.1132
 2061TIP3   OH2 6611   4.934   3.934   5.078  0.1495  0.0421  0.1446
 2061TIP3    H1 6612   4.987   3.876   5.134 -1.6856 -1.3325  0.5217
 2061TIP3    H2 6613   4.858   3.956   5.132 -0.4680  0.6665 -0.9644
 2062TIP3   OH2 6614   5.487   3.413   1.725  0.3057 -0.9422 -0.7164
 2062TIP3    H1 6615   5.401   3.452   1.712  0.7449 -0.3162 -1.8338
 2062TIP3    H2 6616   5.535   3.433   1.644  1.0327 -2.5061 -0.6971
 2063TIP3   OH2 6617   1.194   4.450   0.685  0.1794 -0.1418 -0.4574
 2063TIP3    H1 6618   1.254   4.474   0.615  2.2298  1.4024  1.7493
 2063TIP3    H2 6619   1.242   4.385   0.737 -0.1555  0.8662  1.1445
 2064TIP3   OH2 6620   5.671   6.068   1.745  0.1425  0.3201 -0.1991
 2064TIP3    H1 6621   5.672   5.972   1.747  0.9109  0.3327  0.1545
 2064TIP3    H2 6622   5.604   6.090   1.680 -2.0615 -0.4384  1.7242
 2065TIP3   OH2 6623   0.144   4.203   4.863 -0.1384  0.4553  0.2090
 2065TIP3    H1 6624   0.185   4.280   4.901 -2.2487  1.0722  1.3014
 2065TIP3    H2 6625   0.152   4.215   4.768  1.3824  0.9766  0.3892
 2066TIP3   OH2 6626   0.146   5.327   1.763  0.3861 -0.4575  0.0092
 2066TIP3    H1 6627   0.146   5.232   1.746 -0.3869 -0.6835  1.1850
 2066TIP3    H2 6628   0.236   5.354   1.744  0.8241 -1.5734  0.4118
 2067TIP3   OH2 6629   5.276   4.460   0.133 -0.2447 -0.3347 -0.4277
 2067TIP3    H1 6630   5.332   4.386   0.158  0.0725  0.4648  1.2841
 2067TIP3    H2 6631   5.303   4.531   0.191 -2.9561  0.0948  0.3723
 2068TIP3   OH2 6632   0.734   5.462   5.042 -0.3937  0.0488  0.3647
 2068TIP3    H1 6633   0.807   5.513   5.006 -0.1119  0.6830  1.7962
 2068TIP3    H2 6634   0.691   5.425   4.966  1.2369 -0.0672 -0.5336
 2069TIP3   OH2 6635   4.968   4.785   2.535  0.2212 -0.2655  0.2569
 2069TIP3    H1 6636   5.042   4.726   2.520  0.5516  0.4732 -1.0626
 2069TIP3    H2 6637   5.008   4.864   2.570  0.1780  0.4615 -1.2789
 2070TIP3   OH2 6638   5.308   4.911   0.679  0.1746  0.2288 -0.0993
 2070TIP3    H1 6639   5.397   4.882   0.659 -0.1682 -1.3927  0.6099
 2070TIP3    H2 6640   5.306   5.003   0.653  2.0303  0.2616 -0.1995
 2071TIP3   OH2 6641   4.911   3.095   4.183 -0.2415 -0.3126  0.6914
 2071TIP3    H1 6642   4.981   3.130   4.127 -1.2725 -1.6381 -1.4753
 2071TIP3    H2 6643   4.935   3.003   4.196 -0.7321 -0.3560  1.3020
 2072TIP3   OH2 6644   0.181   3.447   5.140 -0.0415  0.4238  0.1771
 2072TIP3    H1 6645   0.115   3.384   5.167 -0.8916  0.9255 -0.6940
 2072TIP3    H2 6646   0.162   3.464   5.047  1.0879  0.8324  0.0067
 2073TIP3   OH2 6647   3.841   4.231   0.030 -0.2413  0.4345 -0.1082
 2073TIP3    H1 6648   3.883   4.317   0.037 -1.7339  1.3570 -2.0741
 2073TIP3    H2 6649   3.748   4.249   0.038 -0.5325 -1.0921  0.1488
 2074TIP3   OH2 6650   0.262   4.793   0.669  0.1197 -0.1620 -1.1198
 2074TIP3    H1 6651   0.190   4.753   0.620 -0.9598  1.7945 -1.1701
 2074TIP3    H2 6652   0.277   4.877   0.626 -0.6552  1.4687  1.6910
 2075TIP3   OH2 6653   2.329   0.175   5.232  0.0117  0.5858  0.3022
 2075TIP3    H1 6654   2.363   0.183   5.321 -0.0285 -0.6365  0.4258
 2075TIP3    H2 6655   2.262   0.244   5.226 -1.5675 -0.7614  1.9716
 2076TIP3   OH2 6656   0.955   0.694   0.493  0.0775  0.0145 -0.2342
 2076TIP3    H1 6657   0.909   0.612   0.476 -2.9298  1.7609 -0.7764
 2076TIP3    H2 6658   0.953   0.703   0.589 -0.9276  0.1942 -0.2691
 2077TIP3   OH2 6659   0.271   0.166   5.571  0.5897 -0.0133 -0.3311
 2077TIP3    H1 6660   0.183   0.167   5.534  0.9088 -0.6871 -1.1110
 2077TIP3    H2 6661   0.325   0.213   5.507  1.0754 -0.8713 -0.5570
 2078TIP3   OH2 6662   2.521   0.855   1.538  0.4643  0.6172  0.2548
 2078TIP3    H1 6663   2.466   0.816   1.470 -0.7931  0.9142  1.0726
 2078TIP3    H2 6664   2.578   0.916   1.491  1.9128 -1.5883 -0.9392
 2079TIP3   OH2 6665   1.352   0.511   1.575 -0.3809  0.7089 -0.0779
 2079TIP3    H1 6666   1.421   0.445   1.572 -1.4900 -0.5138  0.7001
 2079TIP3    H2 6667   1.390   0.587   1.530  1.9903  0.5732  1.5620
 2080TIP3   OH2 6668   0.409   3.466   0.913 -0.2601  0.3449  0.4260
 2080TIP3    H1 6669   0.384   3.535   0.851 -1.0940  1.5278  2.0271
 2080TIP3    H2 6670   0.505   3.472   0.917 -0.3041  1.2191  0.3337
 2081TIP3   OH2 6671   1.014   5.345   0.969  0.7249 -0.0210 -0.1456
 2081TIP3    H1 6672   1.069   5.269   0.955 -0.0716 -0.6479  0.0906
 2081TIP3    H2 6673   0.949   5.316   1.033  0.7201  1.0038  0.3240
 2082TIP3   OH2 6674   3.989   3.970   2.397  0.9232  0.0701  0.2322
 2082TIP3    H1 6675   3.979   4.065   2.403  2.3609  0.2183  0.4549
 2082TIP3    H2 6676   4.054   3.957   2.329  2.3449 -0.6532  1.6932
 2083TIP3   OH2 6677   1.463   5.351   3.821  0.5343 -0.2848 -0.3091
 2083TIP3    H1 6678   1.512   5.298   3.759  1.4962 -0.6920  0.7746
 2083TIP3    H2 6679   1.381   5.302   3.834 -0.1130  0.3181 -1.9928
 2084TIP3   OH2 6680   0.657   0.533   5.617  0.0142  0.1389 -0.0098
 2084TIP3    H1 6681   0.675   0.520   5.710 -1.2159  0.2990  0.2542
 2084TIP3    H2 6682   0.674   0.448   5.576  0.9089  0.1646  0.2924
 2085TIP3   OH2 6683   3.198   0.246   2.326  0.2032 -0.5298  0.0900
 2085TIP3    H1 6684   3.216   0.336   2.355  0.0278 -0.3236 -0.4372
 2085TIP3    H2 6685   3.125   0.217   2.380  2.1426 -1.4158  2.3597
 2086TIP3   OH2 6686   0.052   0.220   0.042  0.4213 -0.0619 -0.4680
 2086TIP3    H1 6687   0.081   0.307   0.015  1.1461 -0.3465 -0.6144
 2086TIP3    H2 6688  -0.043   0.221   0.029  0.6728 -0.0025 -2.5303
 2087TIP3   OH2 6689   5.568   1.417   0.894 -0.3579 -0.3653 -0.1432
 2087TIP3    H1 6690   5.561   1.470   0.815 -1.6880 -0.7820 -0.3112
 2087TIP3    H2 6691   5.651   1.369   0.884  0.7969  1.5811 -0.0376
 2088TIP3   OH2 6692   0.181   4.954   1.306  0.1739 -0.8154  0.1681
 2088TIP3    H1 6693   0.266   4.913   1.291  0.4462 -0.0838 -0.2616
 2088TIP3    H2 6694   0.188   5.041   1.268 -0.9106 -0.9004 -0.2569
 2089TIP3   OH2 6695   0.894   5.457   1.424 -0.3214 -0.3119  0.0469
 2089TIP3    H1 6696   0.897   5.506   1.342 -0.0848  1.8374  1.3043
 2089TIP3    H2 6697   0.937   5.514   1.488 -4.1009 -0.1186  2.5760
 2090TIP3   OH2 6698   5.804   5.286   1.840  0.0174 -0.0401 -0.6336
 2090TIP3    H1 6699   5.722   5.286   1.791 -0.6913 -1.2883  0.5129
 2090TIP3    H2 6700   5.854   5.359   1.804 -0.7863 -0.4693 -2.7024
 2091TIP3   OH2 6701   5.873   5.282   0.456 -0.4836  0.0043  0.1750
 2091TIP3    H1 6702   5.792   5.245   0.419 -0.4181  0.6591 -0.6511
 2091TIP3    H2 6703   5.848   5.370   0.484 -0.5303 -0.4883  1.7242
 2092TIP3   OH2 6704   2.026   0.883   2.670  0.2901  0.2215  0.0705
 2092TIP3    H1 6705   2.086   0.925   2.608  0.1909  0.4208  0.1101
 2092TIP3    H2 6706   1.941   0.882   2.625  0.2619  0.1884  0.1251
 2093TIP3   OH2 6707   1.175   5.983   0.079  0.1923  0.2106 -0.2723
 2093TIP3    H1 6708   1.144   5.893   0.069  2.2689 -0.6763  0.9925
 2093TIP3    H2 6709   1.228   5.981   0.158  1.0918  2.3311 -0.8107
 2094TIP3   OH2 6710   0.744   0.457   4.741 -1.2272  0.8949  0.4729
 2094TIP3    H1 6711   0.701   0.400   4.677 -0.6041  0.1009  0.7590
 2094TIP3    H2 6712   0.674   0.480   4.802 -1.4386  0.2617  0.4754
 2095TIP3   OH2 6713   1.551   4.243   0.191  0.4847 -0.0230 -0.8041
 2095TIP3    H1 6714   1.584   4.277   0.274  2.1639 -1.5126 -0.8416
 2095TIP3    H2 6715   1.625   4.198   0.152 -0.4382  0.1848 -2.8788
 2096TIP3   OH2 6716   1.146   2.938   5.140  0.1849  0.4691 -0.4627
 2096TIP3    H1 6717   1.164   2.844   5.146  2.3325  0.7324 -2.5260
 2096TIP3    H2 6718   1.056   2.942   5.108 -0.5015 -0.8484  1.1802
 2097TIP3   OH2 6719   2.613   0.962   0.173  0.3154 -0.1241 -0.0065
 2097TIP3    H1 6720   2.536   0.913   0.202  0.3199  0.2380  0.6250
 2097TIP3    H2 6721   2.687   0.911   0.207  0.3036  0.8981  1.6240
 2098TIP3   OH2 6722   1.452   4.586   1.432  0.2760  0.2425 -0.2925
 2098TIP3    H1 6723   1.449   4.510   1.373 -0.0612  0.4102 -0.4949
 2098TIP3    H2 6724   1.393   4.649   1.392  0.7635  0.7149 -0.2597
 2099TIP3   OH2 6725   0.630   3.711   3.679  1.3403 -0.5117  0.0869
 2099TIP3    H1 6726   0.680   3.651   3.624 -0.4216 -1.6612 -0.3034
 2099TIP3    H2 6727   0.591   3.774   3.618  0.4915 -0.9713  0.1454
 2100TIP3   OH2 6728   1.706   4.362   5.348 -0.3217  0.2265 -0.3816
 2100TIP3    H1 6729   1.693   4.392   5.438  0.1190  1.2835 -0.6573
 2100TIP3    H2 6730   1.622   4.323   5.323 -1.1096  1.7274 -0.1775
 2101TIP3   OH2 6731   0.804   5.442   2.737  0.0699  0.7095  0.1210
 2101TIP3    H1 6732   0.882   5.472   2.785  0.6965  0.8244 -0.9544
 2101TIP3    H2 6733   0.784   5.515   2.678  1.0621 -0.6062 -1.8713
 2102TIP3   OH2 6734   1.186   0.585   0.034 -0.2298  0.0067 -0.0681
 2102TIP3    H1 6735   1.274   0.549   0.048 -0.1955  0.5148  1.1688
 2102TIP3    H2 6736   1.160   0.617   0.121 -0.7037  1.9362 -0.9077
 2103TIP3   OH2 6737   5.805   5.215   2.383  0.5692 -0.0599 -0.5458
 2103TIP3    H1 6738   5.772   5.227   2.294  2.3918  0.3050 -1.1940
 2103TIP3    H2 6739   5.900   5.217   2.374  0.7806  2.3644  1.7275
 2104TIP3   OH2 6740   5.826   4.938   0.881  0.0090  0.9160  0.0052
 2104TIP3    H1 6741   5.904   4.917   0.829  0.0351 -1.2197  0.8540
 2104TIP3    H2 6742   5.770   4.988   0.822 -0.1317 -1.7730 -2.2284
 2105TIP3   OH2 6743   5.745   0.100   1.236  0.0032  0.0068  0.1562
 2105TIP3    H1 6744   5.760   0.127   1.327  0.2865  1.4310 -0.3123
 2105TIP3    H2 6745   5.809   0.030   1.222  1.1356  0.9519  0.5185
 2106TIP3   OH2 6746   1.369   0.956   4.695 -0.1269  0.4330  0.6838
 2106TIP3    H1 6747   1.345   0.867   4.668 -0.4871  0.5909  0.4828
 2106TIP3    H2 6748   1.379   0.950   4.790  1.0478 -0.1005  0.5416
 2107TIP3   OH2 6749   4.067   4.816   2.892  0.5363  0.3527 -0.1917
 2107TIP3    H1 6750   3.978   4.820   2.859  0.4388  2.4281  0.2751
 2107TIP3    H2 6751   4.122   4.824   2.813  0.3217 -1.0400 -0.4881
 2108TIP3   OH2 6752   2.016   0.560   2.230  0.3086 -0.1991 -0.0715
 2108TIP3    H1 6753   1.982   0.529   2.146 -1.2986  0.7887  0.1894
 2108TIP3    H2 6754   2.111   0.550   2.222  0.1410 -0.7328 -1.7556
 2109TIP3   OH2 6755   4.638   0.229   1.012 -0.3757  0.1336 -0.5559
 2109TIP3    H1 6756   4.636   0.274   1.097 -0.7660  0.3377 -0.6703
 2109TIP3    H2 6757   4.663   0.298   0.950  0.1956 -0.0814 -0.5697
 2110TIP3   OH2 6758   1.098   4.117   1.206 -0.1167 -0.3246  0.2457
 2110TIP3    H1 6759   1.071   4.113   1.114  1.0558  1.3314 -0.1981
 2110TIP3    H2 6760   1.159   4.044   1.215  0.7226  0.2470 -0.6440
 2111TIP3   OH2 6761   0.492   1.442   1.368 -0.1298 -0.2333 -0.4570
 2111TIP3    H1 6762   0.552   1.502   1.414  1.1927 -3.2879  1.9904
 2111TIP3    H2 6763   0.422   1.499   1.336  1.4004  2.7179  1.1744
 2112TIP3   OH2 6764   4.542   0.215   0.411  0.1757 -0.3791 -0.2409
 2112TIP3    H1 6765   4.594   0.295   0.415 -0.3986  0.0237 -0.6865
 2112TIP3    H2 6766   4.569   0.164   0.487  0.7181  0.1330 -0.0909
 2113TIP3   OH2 6767   0.873   0.382   4.315 -0.9304  0.3832  0.0402
 2113TIP3    H1 6768   0.920   0.433   4.249 -2.5475 -0.3147 -1.7074
 2113TIP3    H2 6769   0.900   0.420   4.399  2.3597  0.3020 -0.8959
 2114TIP3   OH2 6770   0.984   5.157   1.301  0.3160 -0.2190 -0.6762
 2114TIP3    H1 6771   0.996   5.238   1.350 -1.1981 -0.6389  0.4351
 2114TIP3    H2 6772   0.910   5.175   1.242  0.1110 -0.7116 -0.5782
 2115TIP3   OH2 6773   5.579   3.892   4.325  0.7055 -0.1969 -0.0014
 2115TIP3    H1 6774   5.569   3.947   4.403  3.3572 -1.2697  1.1575
 2115TIP3    H2 6775   5.517   3.820   4.339 -0.2829  0.6695  0.1398
 2116TIP3   OH2 6776   1.407   5.204   0.842  0.2694 -0.1174  0.0660
 2116TIP3    H1 6777   1.470   5.198   0.913  2.0360  0.2419 -1.4438
 2116TIP3    H2 6778   1.426   5.288   0.799 -1.1816 -0.0292 -0.4628
 2117TIP3   OH2 6779   5.419   4.959   4.969  0.3248 -0.5207 -0.4273
 2117TIP3    H1 6780   5.429   5.054   4.978 -1.0082 -0.5240  1.2604
 2117TIP3    H2 6781   5.329   4.946   4.941 -0.0500 -1.3865  1.1434
 2118TIP3   OH2 6782   5.351   5.707   0.057  0.1118 -0.4729 -0.3390
 2118TIP3    H1 6783   5.351   5.781   0.118 -0.3429  0.4172 -1.4093
 2118TIP3    H2 6784   5.371   5.631   0.112  1.9412  0.6156  0.5581
 2119TIP3   OH2 6785   5.047   3.669   1.397 -0.1961  0.2801  0.3142
 2119TIP3    H1 6786   5.134   3.707   1.383 -1.2540  2.3208 -1.0636
 2119TIP3    H2 6787   5.031   3.677   1.491  1.9003 -1.9919  0.9183
 2120TIP3   OH2 6788   1.457   5.391   1.851  0.1434  0.0961  0.2732
 2120TIP3    H1 6789   1.362   5.395   1.861  0.0378 -0.7681 -0.2648
 2120TIP3    H2 6790   1.471   5.384   1.757  0.8243  1.8798  0.2232
 2121TIP3   OH2 6791   1.304   1.054   0.199  0.3570 -0.5200 -0.4854
 2121TIP3    H1 6792   1.277   1.007   0.278  0.7972  0.1558  0.0768
 2121TIP3    H2 6793   1.396   1.030   0.186  0.4033 -0.3156 -0.5509
 2122TIP3   OH2 6794   3.972   4.261   1.576 -0.1038  0.5061 -0.4718
 2122TIP3    H1 6795   3.943   4.297   1.660  1.1484  1.0388 -0.2689
 2122TIP3    H2 6796   4.022   4.183   1.599 -0.3618  0.2518 -0.7640
 2123TIP3   OH2 6797   5.699   5.252   2.125 -0.2603 -0.2226  0.0272
 2123TIP3    H1 6798   5.719   5.159   2.136 -1.0454 -0.1422  2.4504
 2123TIP3    H2 6799   5.640   5.255   2.050 -0.6816 -1.7599  0.2698
 2124TIP3   OH2 6800   2.548   5.596   4.076  0.6130 -0.5854 -0.4368
 2124TIP3    H1 6801   2.473   5.537   4.076 -0.0476  0.2594 -0.9988
 2124TIP3    H2 6802   2.528   5.662   4.010  1.7780 -0.2633 -0.4864
 2125TIP3   OH2 6803   5.828   6.058   4.485  0.6270  0.5073 -0.7219
 2125TIP3    H1 6804   5.797   6.048   4.575 -1.1244 -0.5693 -1.4161
 2125TIP3    H2 6805   5.781   6.134   4.452  0.6318  0.3869 -1.0035
 2126TIP3   OH2 6806   0.948   4.138   0.625 -0.1211 -1.0171 -0.0003
 2126TIP3    H1 6807   0.969   4.045   0.629 -1.3729 -1.3772 -1.5432
 2126TIP3    H2 6808   1.033   4.181   0.610  0.3525 -1.9650 -0.0736
 2127TIP3   OH2 6809   4.783   5.822   5.857 -0.1004  0.2556 -0.0391
 2127TIP3    H1 6810   4.842   5.881   5.904  0.8751 -0.2049 -0.6769
 2127TIP3    H2 6811   4.839   5.778   5.793 -1.1471 -0.1546 -0.6788
 2128TIP3   OH2 6812   4.882   2.904   1.735  0.9215 -0.6765  0.3540
 2128TIP3    H1 6813   4.822   2.979   1.727  1.7891 -0.0711 -0.5149
 2128TIP3    H2 6814   4.824   2.829   1.744 -0.0492 -0.4098 -2.9730
 2129TIP3   OH2 6815   4.083   4.235   0.628  0.5211 -0.0478 -0.1919
 2129TIP3    H1 6816   4.135   4.283   0.564 -1.1807  0.2499 -1.3837
 2129TIP3    H2 6817   4.065   4.299   0.697  0.8982  0.1131 -0.2361
 2130TIP3   OH2 6818   3.782   3.650   1.341  0.2118  0.7154 -0.5328
 2130TIP3    H1 6819   3.767   3.649   1.246  1.0467 -0.3314 -0.6618
 2130TIP3    H2 6820   3.805   3.560   1.362  0.9301  1.1408  0.5250
 2131TIP3   OH2 6821   4.953   0.081   0.493 -0.6262  0.1666  0.1472
 2131TIP3    H1 6822   5.024   0.094   0.555 -0.2247 -2.4852  0.2940
 2131TIP3    H2 6823   4.996   0.070   0.408 -1.0966  2.3029 -0.4077
 2132TIP3   OH2 6824   2.315   5.920   1.339 -0.0879 -0.2366 -0.5463
 2132TIP3    H1 6825   2.242   5.859   1.341 -0.3696  0.0773 -1.2732
 2132TIP3    H2 6826   2.286   5.991   1.282  0.3935  0.3801 -0.0390
 2133TIP3   OH2 6827   2.086   1.549   6.092  0.1194  0.3466  0.4718
 2133TIP3    H1 6828   2.108   1.475   6.035  2.3279  0.9769  0.4591
 2133TIP3    H2 6829   2.027   1.511   6.157  1.7255 -1.6086  0.8579
 2134TIP3   OH2 6830   3.437   5.479   5.558  0.0366 -0.3786 -0.4402
 2134TIP3    H1 6831   3.422   5.484   5.653  0.5899  2.3705 -0.4585
 2134TIP3    H2 6832   3.420   5.568   5.527  0.0231 -1.2230 -2.9161
 2135TIP3   OH2 6833   2.335   4.356   0.455 -0.5384 -0.8361  0.0511
 2135TIP3    H1 6834   2.425   4.339   0.484 -0.5873 -0.4174  0.4695
 2135TIP3    H2 6835   2.306   4.428   0.511 -0.6791 -0.0838 -0.9714
 2136TIP3   OH2 6836   2.487   5.409   1.547 -0.0583  0.1852  0.0896
 2136TIP3    H1 6837   2.405   5.368   1.518 -1.0852  0.9031  1.9072
 2136TIP3    H2 6838   2.537   5.336   1.585 -1.7040  0.4614  2.9255
 2137TIP3   OH2 6839   1.922   4.259   4.754  0.0208 -0.3802  0.3479
 2137TIP3    H1 6840   1.953   4.181   4.801 -0.5270 -1.2661 -0.7100
 2137TIP3    H2 6841   1.885   4.315   4.821  0.9107 -0.7979  1.2013
 2138TIP3   OH2 6842   2.918   3.038   5.822  0.1236 -0.1384 -0.5638
 2138TIP3    H1 6843   2.869   3.117   5.843 -1.4561 -1.0385 -0.7528
 2138TIP3    H2 6844   3.006   3.069   5.800 -0.9034  1.7044 -2.1994
 2139TIP3   OH2 6845   2.583   0.244   5.801  0.1493  0.4139 -0.3636
 2139TIP3    H1 6846   2.545   0.180   5.861 -1.3110  1.6801  0.1078
 2139TIP3    H2 6847   2.561   0.211   5.714 -2.5279  1.3776 -0.0878
 2140TIP3   OH2 6848   1.772   0.238   5.730  0.4540 -0.2071  0.3167
 2140TIP3    H1 6849   1.735   0.198   5.809  0.2105  0.9690  0.7983
 2140TIP3    H2 6850   1.723   0.199   5.658  0.0664 -0.6126  0.7957
 2141TIP3   OH2 6851   3.229   5.824   2.040 -0.0895 -0.1757  0.4133
 2141TIP3    H1 6852   3.188   5.810   2.125  1.3421 -2.0948  0.7977
 2141TIP3    H2 6853   3.261   5.914   2.043  0.1993 -0.3219  2.0046
 2142TIP3   OH2 6854   1.184   3.921   4.640  0.1677  0.2887  0.0150
 2142TIP3    H1 6855   1.253   3.964   4.590 -0.2193  0.7233 -0.1477
 2142TIP3    H2 6856   1.188   3.961   4.727 -1.1683  1.7472 -0.5631
 2143TIP3   OH2 6857   1.660   5.495   5.283 -0.3943  0.3829 -0.6440
 2143TIP3    H1 6858   1.643   5.416   5.231 -0.2173  1.5641 -2.5373
 2143TIP3    H2 6859   1.644   5.567   5.223  1.6464  1.7605  0.4218
 2144TIP3   OH2 6860   2.521   0.451   4.634  0.0229 -0.0623  0.8430
 2144TIP3    H1 6861   2.568   0.439   4.551 -1.6221  0.1552 -0.1348
 2144TIP3    H2 6862   2.549   0.378   4.688 -0.8322 -1.6319 -0.8069
 2145TIP3   OH2 6863   3.300   0.205   0.557  0.7848 -0.2431  0.4393
 2145TIP3    H1 6864   3.303   0.133   0.620 -1.9202  1.3912  2.5549
 2145TIP3    H2 6865   3.217   0.194   0.512  1.5158  0.1223 -1.0302
 2146TIP3   OH2 6866   4.322   0.893   0.800  0.0517  0.6477 -0.1471
 2146TIP3    H1 6867   4.412   0.890   0.767  0.7187  0.4977  1.6232
 2146TIP3    H2 6868   4.291   0.981   0.780  1.3318  1.4008  1.0692
 2147TIP3   OH2 6869   4.435   2.897   0.622  0.1527  0.0983  0.1657
 2147TIP3    H1 6870   4.398   2.983   0.641 -1.4551 -0.7961  1.0999
 2147TIP3    H2 6871   4.477   2.870   0.703  0.5756 -0.0628 -0.1009
 2148TIP3   OH2 6872   3.485   0.438   2.791  0.1822 -0.2256  0.3896
 2148TIP3    H1 6873   3.465   0.426   2.883  1.2515  0.9665  0.7961
 2148TIP3    H2 6874   3.421   0.503   2.761  0.2968 -0.0687  0.4816
 2149TIP3   OH2 6875   2.895   5.295   1.143  0.2713 -0.1612 -0.0813
 2149TIP3    H1 6876   2.825   5.360   1.144  0.7497  0.4687 -3.4262
 2149TIP3    H2 6877   2.850   5.211   1.151 -0.7350  0.3217 -0.6166
 2150TIP3   OH2 6878   0.916   6.094   0.199 -0.4382  0.3943 -0.4209
 2150TIP3    H1 6879   0.964   6.093   0.282 -2.2368 -0.3760  0.6323
 2150TIP3    H2 6880   0.981   6.119   0.134  1.1338  0.4341  1.1403
 2151TIP3   OH2 6881   3.546   0.846   3.574 -0.4892  0.1216 -0.0355
 2151TIP3    H1 6882   3.458   0.874   3.599 -0.4385  0.5465 -0.3286
 2151TIP3    H2 6883   3.549   0.859   3.479  0.1783  0.9145  0.0882
 2152TIP3   OH2 6884   5.650   2.423   5.600 -0.6833  0.4896 -0.2389
 2152TIP3    H1 6885   5.577   2.485   5.598 -0.9097  0.2172 -0.4524
 2152TIP3    H2 6886   5.637   2.368   5.523  0.2942  1.0607 -0.8150
 2153TIP3   OH2 6887   4.370   5.233   2.441  0.6171  0.0608 -0.5101
 2153TIP3    H1 6888   4.359   5.218   2.535  1.2621  0.5040 -0.3602
 2153TIP3    H2 6889   4.419   5.315   2.436  3.9957 -1.8893 -1.1048
 2154TIP3   OH2 6890   3.546   4.534   0.483 -0.6903 -0.0705 -0.6356
 2154TIP3    H1 6891   3.569   4.446   0.512  0.3134  0.7294  1.0578
 2154TIP3    H2 6892   3.454   4.544   0.506 -0.3757 -0.0924  0.6711
 2155TIP3   OH2 6893   1.737   5.527   1.639  0.2077  0.0347  0.7194
 2155TIP3    H1 6894   1.693   5.449   1.604  1.2142 -0.6135  0.8734
 2155TIP3    H2 6895   1.677   5.599   1.618 -0.6536 -0.7477  0.4142
 2156TIP3   OH2 6896   2.168   1.006   0.902 -1.2480 -0.1714  0.0287
 2156TIP3    H1 6897   2.081   1.044   0.892 -0.8122  1.1949  1.1747
 2156TIP3    H2 6898   2.203   1.001   0.813 -1.5493  1.6332 -0.2156
 2157TIP3   OH2 6899   2.371   2.764   5.317  0.7134  0.4578  0.0646
 2157TIP3    H1 6900   2.355   2.676   5.350  1.5983 -0.0882 -0.9437
 2157TIP3    H2 6901   2.459   2.785   5.346  0.5131  1.0175  0.2838
 2158TIP3   OH2 6902   2.874   1.308   1.172  0.1599 -0.0884  0.1910
 2158TIP3    H1 6903   2.852   1.353   1.254  0.2438  0.3712 -0.0349
 2158TIP3    H2 6904   2.794   1.264   1.146 -0.2221  0.8162 -0.1486
 2159TIP3   OH2 6905   2.858   5.407   0.229 -0.5594 -0.7129 -0.9710
 2159TIP3    H1 6906   2.829   5.440   0.314 -1.9834 -0.9765 -1.3446
 2159TIP3    H2 6907   2.900   5.481   0.187  2.6623 -1.2811  1.0643
 2160TIP3   OH2 6908   2.602   1.226   1.083 -0.3408 -0.3018 -0.1497
 2160TIP3    H1 6909   2.614   1.132   1.081 -1.1416 -0.4520  1.2769
 2160TIP3    H2 6910   2.512   1.239   1.053 -0.7578 -0.1191  1.1498
 2161TIP3   OH2 6911   3.520   5.456   3.685  0.0596  0.0613  0.6858
 2161TIP3    H1 6912   3.504   5.527   3.748 -0.5637 -0.8994  1.6187
 2161TIP3    H2 6913   3.597   5.411   3.719  1.2798  1.1054 -0.6466
 2162TIP3   OH2 6914   3.119   0.453   5.518  0.2585 -0.2743 -0.0583
 2162TIP3    H1 6915   3.169   0.449   5.599  1.4116 -0.8479 -0.7904
 2162TIP3    H2 6916   3.179   0.491   5.454 -1.0996  1.5356 -0.3150
 2163TIP3   OH2 6917   1.059   0.474   4.132 -0.2519  0.5978 -0.2126
 2163TIP3    H1 6918   1.149   0.443   4.141 -1.0802 -2.5093 -1.7983
 2163TIP3    H2 6919   1.046   0.484   4.038 -1.0207  2.8154  0.1060
 2164TIP3   OH2 6920   0.758   5.646   5.564 -0.5605 -0.5727 -0.2000
 2164TIP3    H1 6921   0.762   5.615   5.654 -1.3031 -2.0408 -0.6556
 2164TIP3    H2 6922   0.680   5.702   5.562 -0.2605 -0.1328  0.1770
 2165TIP3   OH2 6923   5.462   4.374   0.579 -0.4018  0.2088  0.4168
 2165TIP3    H1 6924   5.369   4.376   0.556 -0.3717  0.2329  0.2973
 2165TIP3    H2 6925   5.463   4.382   0.675 -0.5079  0.5479  0.3908
 2166TIP3   OH2 6926   1.962   0.398   0.506 -0.4973 -0.1264 -0.1402
 2166TIP3    H1 6927   1.949   0.478   0.558 -1.8675 -1.2412  1.2844
 2166TIP3    H2 6928   2.037   0.355   0.547 -0.1541  0.0983 -0.5207
 2167TIP3   OH2 6929   3.872   4.159   0.308  0.0777  0.4681 -0.7189
 2167TIP3    H1 6930   3.855   4.221   0.378  1.3200 -0.9062  0.8308
 2167TIP3    H2 6931   3.832   4.199   0.231 -3.2466  0.9621  1.1807
 2168TIP3   OH2 6932   4.081   4.920   0.585  0.3583  0.0049 -0.1346
 2168TIP3    H1 6933   4.154   4.971   0.551  0.7142 -0.6085 -0.3042
 2168TIP3    H2 6934   4.115   4.831   0.590 -0.8902 -0.5998 -1.7958
 2169TIP3   OH2 6935   4.761   4.268   0.092  0.4194 -0.2275  0.4140
 2169TIP3    H1 6936   4.814   4.312   0.025  0.3155 -1.0681 -0.2262
 2169TIP3    H2 6937   4.729   4.339   0.147  0.6168  0.4642 -0.3518
 2170TIP3   OH2 6938   1.415   5.464   0.280 -0.6670  0.0734 -0.8186
 2170TIP3    H1 6939   1.324   5.474   0.250 -0.4278 -0.5187 -1.7723
 2170TIP3    H2 6940   1.409   5.461   0.375 -1.8403 -1.7581 -0.9196
 2171TIP3   OH2 6941   4.875   5.401   0.492 -0.2422  0.0200 -0.3291
 2171TIP3    H1 6942   4.802   5.423   0.435  0.0068  0.5978 -0.4319
 2171TIP3    H2 6943   4.928   5.481   0.495  0.1960 -0.2795  0.0254
 2172TIP3   OH2 6944   3.721   0.478   0.808  0.1191 -0.3226 -0.1546
 2172TIP3    H1 6945   3.630   0.483   0.779 -0.3511  0.6255  1.4598
 2172TIP3    H2 6946   3.763   0.419   0.745 -1.2533  0.4249 -1.7929
 2173TIP3   OH2 6947   3.674   5.805   5.787 -0.3292 -0.4246  0.6036
 2173TIP3    H1 6948   3.764   5.794   5.818 -0.1719 -1.1648 -0.0901
 2173TIP3    H2 6949   3.633   5.720   5.801 -0.5415 -0.4721 -0.2592
 2174TIP3   OH2 6950   1.772   5.470   1.291  0.3678 -0.1401  0.4986
 2174TIP3    H1 6951   1.737   5.392   1.333  0.6525  0.3932  1.7597
 2174TIP3    H2 6952   1.846   5.496   1.346  0.7457  0.5859 -0.3300
 2175TIP3   OH2 6953   1.375   0.609   5.692  0.2224 -0.4092  0.0557
 2175TIP3    H1 6954   1.372   0.697   5.729 -1.4321  0.5736 -2.3062
 2175TIP3    H2 6955   1.290   0.597   5.650  1.5870 -1.9202 -2.3859
 2176TIP3   OH2 6956   2.021   5.025   2.002 -0.3066  0.1597 -0.8200
 2176TIP3    H1 6957   2.071   5.106   2.005  0.4045 -0.2274 -1.9451
 2176TIP3    H2 6958   2.064   4.972   1.935  0.0440 -1.7025  0.8450
 2177TIP3   OH2 6959   2.865   0.093   1.652 -0.0975  0.6140 -0.1253
 2177TIP3    H1 6960   2.894   0.019   1.599  1.3223  1.8245 -1.0691
 2177TIP3    H2 6961   2.808   0.142   1.593 -0.4119  0.6968  0.2482
 2178TIP3   OH2 6962   5.566   4.627   0.776 -0.1859  0.4160 -0.4531
 2178TIP3    H1 6963   5.591   4.678   0.853 -1.0433 -0.2875  0.3080
 2178TIP3    H2 6964   5.648   4.612   0.729  0.5101 -0.0485  0.8811
 2179TIP3   OH2 6965   5.048   5.663   0.271  0.2654 -0.1634  0.3009
 2179TIP3    H1 6966   5.044   5.758   0.261 -0.0675 -0.2016  0.0373
 2179TIP3    H2 6967   4.970   5.631   0.225  0.6979 -0.6030 -0.1396
 2180TIP3   OH2 6968   4.662   3.677   2.495  0.2679  0.5962  0.0421
 2180TIP3    H1 6969   4.688   3.732   2.422 -0.9735  1.4796  0.2550
 2180TIP3    H2 6970   4.724   3.699   2.565 -1.1981  2.9152  0.6472
 2181TIP3   OH2 6971   3.505   5.895   0.647 -0.2515  0.2570 -0.5498
 2181TIP3    H1 6972   3.589   5.878   0.690 -0.5150 -1.0221 -0.5153
 2181TIP3    H2 6973   3.442   5.901   0.719 -0.2114  1.1184 -0.5814
 2182TIP3   OH2 6974   5.410   0.743   5.718  0.3046  0.6409 -0.3446
 2182TIP3    H1 6975   5.419   0.829   5.677 -0.4341  1.3373  0.9543
 2182TIP3    H2 6976   5.361   0.691   5.654 -1.4908  1.9353 -0.0384
 2183TIP3   OH2 6977   5.580   5.617   4.645 -0.1595  0.0336 -0.1502
 2183TIP3    H1 6978   5.506   5.647   4.698 -0.1785  0.9664 -0.6933
 2183TIP3    H2 6979   5.649   5.596   4.708 -0.9514 -1.0449  0.3756
 2184TIP3   OH2 6980   2.724   1.196   0.062 -0.2570 -0.0316 -0.3663
 2184TIP3    H1 6981   2.711   1.111   0.104  0.6977  0.0251  0.0595
 2184TIP3    H2 6982   2.722   1.259   0.135 -1.2765  0.3538 -0.7103
 2185TIP3   OH2 6983   4.331   0.580   0.961 -0.2533 -0.1784 -0.1707
 2185TIP3    H1 6984   4.311   0.568   0.868 -0.8941 -0.4554 -0.0022
 2185TIP3    H2 6985   4.398   0.648   0.963  1.0894 -1.4397 -0.9565
 2186TIP3   OH2 6986   2.654   4.243   4.776 -0.5548 -0.0692  0.1931
 2186TIP3    H1 6987   2.728   4.293   4.811 -1.7567 -0.1945  2.9622
 2186TIP3    H2 6988   2.685   4.213   4.690  2.6059 -0.0972  1.2692
 2187TIP3   OH2 6989   3.065   5.450   5.789  0.4896 -0.2187  0.1595
 2187TIP3    H1 6990   3.056   5.448   5.884  1.2286  2.9259  0.3457
 2187TIP3    H2 6991   3.145   5.401   5.770  0.0273 -1.3424  1.0922
 2188TIP3   OH2 6992   4.131   0.150   0.178  0.6965 -0.0154 -0.0014
 2188TIP3    H1 6993   4.183   0.189   0.248 -2.5144  3.0645  0.7734
 2188TIP3    H2 6994   4.063   0.100   0.222  0.3846 -0.4643 -0.9621
 2189TIP3   OH2 6995   5.065   5.650   2.384 -0.1780  0.2944  0.9262
 2189TIP3    H1 6996   5.153   5.638   2.420 -0.0855 -1.9432  0.0341
 2189TIP3    H2 6997   5.074   5.722   2.322  1.3696 -0.8656 -0.2292
 2190TIP3   OH2 6998   4.586   6.085   0.205  0.3915 -0.2496 -0.3284
 2190TIP3    H1 6999   4.578   6.079   0.300  1.2204 -1.2595 -0.3037
 2190TIP3    H2 7000   4.505   6.128   0.177  0.0161 -0.1807  0.8045
 2191TIP3   OH2 7001   4.666   0.881   5.433  0.2337 -0.7830 -0.1739
 2191TIP3    H1 7002   4.624   0.868   5.348 -0.3120 -0.2616  0.0143
 2191TIP3    H2 7003   4.759   0.891   5.413 -0.2075  1.9163 -0.9511
 2192TIP3   OH2 7004   3.361   5.800   0.427 -0.0275  0.3731  0.1061
 2192TIP3    H1 7005   3.378   5.706   0.422 -1.2102  0.1908 -0.8534
 2192TIP3    H2 7006   3.412   5.830   0.502  2.0726 -0.6366 -0.9004
 2193TIP3   OH2 7007   4.511   4.094   1.887 -0.0839 -0.0290 -0.4418
 2193TIP3    H1 7008   4.488   4.137   1.805 -0.1099  1.0569  0.1222
 2193TIP3    H2 7009   4.447   4.024   1.897 -0.4690  0.2400 -1.0384
 2194TIP3   OH2 7010   2.204   1.912   1.132 -0.2749 -0.0225 -0.2067
 2194TIP3    H1 7011   2.281   1.859   1.151 -0.9732 -0.6325  0.9893
 2194TIP3    H2 7012   2.139   1.850   1.101 -0.5070  0.3997 -0.5775
 2195TIP3   OH2 7013   3.398   1.187   4.370 -0.1749  0.3166  0.2169
 2195TIP3    H1 7014   3.341   1.262   4.385 -0.5455  0.0282  0.2793
 2195TIP3    H2 7015   3.457   1.186   4.445 -0.3582  0.3764  0.3625
 2196TIP3   OH2 7016   1.781   5.785   1.921 -0.3795  0.2533 -0.0947
 2196TIP3    H1 7017   1.769   5.691   1.908  1.2090  0.0815 -0.4301
 2196TIP3    H2 7018   1.822   5.816   1.840  0.0860  1.0377  0.4302
 2197TIP3   OH2 7019   4.913   0.220   1.006 -0.2044  0.2533  0.1308
 2197TIP3    H1 7020   4.894   0.291   1.067 -0.0244 -0.5809  1.1748
 2197TIP3    H2 7021   4.828   0.182   0.985 -0.4573  1.7027 -1.5996
 2198TIP3   OH2 7022   4.369   4.393   1.809  0.0559  0.3356 -0.8226
 2198TIP3    H1 7023   4.370   4.480   1.771  1.0651  0.0556 -1.4423
 2198TIP3    H2 7024   4.409   4.337   1.743  1.6687 -0.1766  0.5700
 2199TIP3   OH2 7025   2.928   0.737   5.709  0.2356  0.5919  0.4138
 2199TIP3    H1 7026   2.944   0.671   5.776 -1.0238 -0.3558 -0.1828
 2199TIP3    H2 7027   2.833   0.747   5.708  0.2822  0.9873 -0.8581
 2200TIP3   OH2 7028   0.030   5.454   0.122 -0.1971  0.5150 -0.6010
 2200TIP3    H1 7029  -0.005   5.390   0.060 -0.0761  0.1633 -0.3068
 2200TIP3    H2 7030   0.055   5.402   0.198  0.7417  0.7956 -0.7104
 2201TIP3   OH2 7031   3.319   0.947   0.448 -0.5441 -0.2953  0.2830
 2201TIP3    H1 7032   3.402   0.914   0.481 -0.5403  0.6041  1.2038
 2201TIP3    H2 7033   3.301   1.024   0.502 -2.7573 -1.3947  1.1432
 2202TIP3   OH2 7034   5.358   5.920   4.051 -0.3452 -0.2929  0.1313
 2202TIP3    H1 7035   5.317   5.915   3.965 -0.6099 -1.3669  0.3058
 2202TIP3    H2 7036   5.290   5.956   4.108 -0.0888  0.6501 -0.1513
 2203TIP3   OH2 7037   4.256   5.537   1.086  0.5190  0.4962  0.8374
 2203TIP3    H1 7038   4.271   5.482   1.162  0.0758 -0.5263  0.1951
 2203TIP3    H2 7039   4.337   5.532   1.035 -0.3480 -1.4607 -0.3967
 2204TIP3   OH2 7040   5.718   4.981   2.081 -0.6264 -0.3082  0.2892
 2204TIP3    H1 7041   5.710   4.893   2.043  0.8896 -0.4207  0.1977
 2204TIP3    H2 7042   5.810   4.989   2.103 -0.7144  1.3678  0.0850
 2205TIP3   OH2 7043   4.626   1.372   4.330 -0.0703  0.0857 -0.0882
 2205TIP3    H1 7044   4.626   1.447   4.270  1.1297  0.7171  0.6632
 2205TIP3    H2 7045   4.714   1.335   4.322  0.7965  1.3915  2.7316
 2206TIP3   OH2 7046   4.725   0.501   1.027  0.0921  0.2821  0.0218
 2206TIP3    H1 7047   4.649   0.557   1.014 -0.3829 -0.4476 -0.3615
 2206TIP3    H2 7048   4.740   0.502   1.121 -0.0202  0.9011  0.0378
 2207TIP3   OH2 7049   5.350   5.731   0.446 -0.0474 -0.3607 -0.4435
 2207TIP3    H1 7050   5.362   5.712   0.539 -0.0848 -0.7443 -0.5169
 2207TIP3    H2 7051   5.406   5.668   0.401  0.8364  0.5473 -0.6516
 2208TIP3   OH2 7052   0.197   4.100   2.750  0.4385 -0.0418 -0.1239
 2208TIP3    H1 7053   0.282   4.140   2.766 -0.0500  1.2775 -0.7655
 2208TIP3    H2 7054   0.136   4.150   2.804 -0.0464 -0.4792 -0.2565
 2209TIP3   OH2 7055   5.991   5.470   1.663  0.0188  0.4854 -0.2606
 2209TIP3    H1 7056   5.932   5.424   1.602  0.0846 -2.2146  1.6203
 2209TIP3    H2 7057   6.057   5.404   1.687  1.1830  2.1122  1.1614
 2210TIP3   OH2 7058   0.258   0.204   1.153  0.4951 -0.9632 -0.8674
 2210TIP3    H1 7059   0.329   0.199   1.217 -0.2607 -0.3953  0.0409
 2210TIP3    H2 7060   0.217   0.118   1.156  1.3707 -1.4170 -1.6731
 2211TIP3   OH2 7061   0.675   0.281   5.547  0.2967  0.0708  0.2920
 2211TIP3    H1 7062   0.583   0.258   5.534  0.6570 -0.3829 -1.5915
 2211TIP3    H2 7063   0.721   0.197   5.545  1.1261  0.5368 -2.3087
 2212TIP3   OH2 7064   5.589   0.443   5.656 -0.3649 -0.3359  0.6915
 2212TIP3    H1 7065   5.584   0.428   5.750 -1.1127  0.6899  0.8219
 2212TIP3    H2 7066   5.580   0.538   5.646  2.1780 -0.1466 -0.2509
 2213TIP3   OH2 7067   2.812   6.015   0.455  0.4235  0.2318 -0.3501
 2213TIP3    H1 7068   2.845   6.030   0.366 -1.2521  1.6165 -0.7521
 2213TIP3    H2 7069   2.774   5.927   0.451  1.8048 -0.3674 -0.5520
 2214TIP3   OH2 7070   5.074   5.970   1.642  0.3613  0.0650 -0.5136
 2214TIP3    H1 7071   5.112   6.049   1.682 -1.7565  0.4389  0.8079
 2214TIP3    H2 7072   5.002   6.003   1.589  0.0725 -0.9040 -0.7220
 2215TIP3   OH2 7073   3.883   5.970   2.557  0.1417 -0.0324 -0.2241
 2215TIP3    H1 7074   3.852   6.050   2.599 -0.4248  0.0732 -0.8342
 2215TIP3    H2 7075   3.961   5.996   2.509  1.1030 -0.2635  1.1872
 2216TIP3   OH2 7076   1.198   3.864   0.605 -0.2493 -0.1188 -0.0598
 2216TIP3    H1 7077   1.272   3.812   0.572  0.3944  0.9025 -0.2764
 2216TIP3    H2 7078   1.211   3.951   0.566 -0.5511  0.5774  1.3506
 2217TIP3   OH2 7079   4.280   4.947   5.403 -0.1713 -0.2629  0.4350
 2217TIP3    H1 7080   4.202   4.984   5.442  0.1614  0.6057  0.2823
 2217TIP3    H2 7081   4.280   4.855   5.431 -0.9441 -0.1282  0.8807
 2218TIP3   OH2 7082   3.156   0.461   0.565  0.1794  0.2355  0.1090
 2218TIP3    H1 7083   3.192   0.538   0.610  1.1647  0.2780 -0.7449
 2218TIP3    H2 7084   3.206   0.387   0.600  0.1466  0.1319 -0.0652
 2219TIP3   OH2 7085   6.086   3.554   0.824 -0.1757  0.1880  0.5445
 2219TIP3    H1 7086   6.078   3.481   0.886  0.3178 -0.3054  0.0431
 2219TIP3    H2 7087   5.999   3.564   0.787  0.4001 -2.2158 -1.6477
 2220TIP3   OH2 7088   0.365   1.758   5.785 -0.3282  0.1053 -0.3491
 2220TIP3    H1 7089   0.407   1.822   5.728 -2.5770  0.9050 -1.1312
 2220TIP3    H2 7090   0.337   1.688   5.727 -1.6157  0.3895 -0.0898
 2221TIP3   OH2 7091   3.485   1.729   5.383  0.1061  0.1724 -0.2893
 2221TIP3    H1 7092   3.535   1.750   5.461 -1.1066  0.6799  0.3721
 2221TIP3    H2 7093   3.546   1.681   5.327  1.7127  1.8988 -0.0733
 2222TIP3   OH2 7094   4.227   4.841   1.152  0.1933 -0.1405 -0.1804
 2222TIP3    H1 7095   4.275   4.805   1.078  0.4086  1.3031 -0.7693
 2222TIP3    H2 7096   4.208   4.931   1.126 -0.5174  0.1028  1.1482
 2223TIP3   OH2 7097   0.188   4.482   0.264 -0.0679  0.1735  0.7427
 2223TIP3    H1 7098   0.101   4.482   0.303 -0.9280 -2.0459 -1.0837
 2223TIP3    H2 7099   0.173   4.503   0.172  1.3161 -0.2338  0.4129
 2224TIP3   OH2 7100   2.856   2.180   0.834 -0.1235 -0.6528 -0.3624
 2224TIP3    H1 7101   2.822   2.157   0.921  1.1322 -1.4492 -0.0539
 2224TIP3    H2 7102   2.858   2.097   0.787 -0.3534 -0.3004 -0.9957
 2225TIP3   OH2 7103   5.477   4.715   5.730 -0.1265 -0.0485  0.7705
 2225TIP3    H1 7104   5.479   4.639   5.672  0.8162 -0.6027  1.5008
 2225TIP3    H2 7105   5.494   4.789   5.673  1.3910 -0.6487  0.4182
 2226TIP3   OH2 7106   4.915   0.828   2.920  0.1721  0.3341  0.2093
 2226TIP3    H1 7107   4.918   0.806   3.013 -0.9146  0.3790  0.2582
 2226TIP3    H2 7108   5.007   0.825   2.892  0.5983  1.1636  1.4685
 2227TIP3   OH2 7109   4.184   1.367   5.161 -0.9042 -0.1488  0.4927
 2227TIP3    H1 7110   4.118   1.433   5.182  0.8336  1.7878 -0.0126
 2227TIP3    H2 7111   4.192   1.315   5.241 -0.0981  2.1609  1.9302
 2228TIP3   OH2 7112   3.184   1.321   5.597 -0.4450 -0.3475  0.1964
 2228TIP3    H1 7113   3.177   1.405   5.552 -1.1137 -0.4334  0.1331
 2228TIP3    H2 7114   3.096   1.284   5.592  0.6196 -2.6075 -2.7627
 2229TIP3   OH2 7115   3.954   0.715   2.316 -0.0150 -0.8198 -0.3136
 2229TIP3    H1 7116   3.939   0.656   2.390  1.3135  1.4912  1.8591
 2229TIP3    H2 7117   3.892   0.786   2.330 -0.6154 -0.9580 -2.1437
 2230TIP3   OH2 7118   4.506   3.952   4.957  0.0695 -0.5197  0.0678
 2230TIP3    H1 7119   4.597   3.977   4.944  0.6437 -3.1359 -1.3548
 2230TIP3    H2 7120   4.457   4.007   4.895  0.5023  1.6769  1.6085
 2231TIP3   OH2 7121   0.441   0.865   2.125  0.2026 -0.1282 -0.6110
 2231TIP3    H1 7122   0.398   0.856   2.209 -1.3492  0.7439 -1.2965
 2231TIP3    H2 7123   0.436   0.777   2.086 -0.3976 -0.1697 -0.4342
 2232TIP3   OH2 7124   0.360   5.964   6.017  0.0878 -0.3049  0.1628
 2232TIP3    H1 7125   0.372   6.044   5.967  1.5454 -0.0446  0.9237
 2232TIP3    H2 7126   0.290   5.985   6.079 -0.0928  0.1184 -0.1805
 2233TIP3   OH2 7127   0.436   1.381   0.075 -0.0128  0.1780  0.1225
 2233TIP3    H1 7128   0.429   1.476   0.062  0.0271  0.2757  0.7723
 2233TIP3    H2 7129   0.530   1.363   0.069  0.1515  0.4408  1.6557
 2234TIP3   OH2 7130   6.021   3.831   3.870 -0.0480  0.0465  0.2553
 2234TIP3    H1 7131   6.095   3.846   3.811  0.1017 -2.5641 -0.2637
 2234TIP3    H2 7132   5.951   3.885   3.833  0.6129 -0.0638 -1.2054
 2235TIP3   OH2 7133   3.180   6.079   2.874  0.4112  0.9274  0.5391
 2235TIP3    H1 7134   3.220   6.111   2.793 -0.0488 -0.7208 -0.3670
 2235TIP3    H2 7135   3.130   6.154   2.907  0.7615  1.6832 -0.6051
 2236TIP3   OH2 7136   5.901   1.103   1.936 -0.2562 -0.2397  0.2060
 2236TIP3    H1 7137   5.816   1.129   1.901  0.3123  0.2862 -0.8012
 2236TIP3    H2 7138   5.882   1.076   2.026 -1.6949 -1.3759 -0.4164
 2237TIP3   OH2 7139   5.923   0.079   5.563 -0.1076 -0.3046  0.2077
 2237TIP3    H1 7140   5.959   0.076   5.652  0.1624  0.4523  0.1265
 2237TIP3    H2 7141   5.966   0.154   5.522  1.0253 -1.6246 -1.1080
 2238TIP3   OH2 7142   5.061   5.907   0.686 -1.0342 -0.0504 -0.6505
 2238TIP3    H1 7143   5.127   5.856   0.734  0.4685  3.0221  0.7384
 2238TIP3    H2 7144   5.057   5.866   0.600  0.1007 -2.4793  0.3868
 2239TIP3   OH2 7145   5.512   5.197   4.724 -0.2075 -0.0795 -0.1751
 2239TIP3    H1 7146   5.521   5.134   4.652 -0.1554  0.8150 -0.9599
 2239TIP3    H2 7147   5.599   5.235   4.734 -0.1377 -0.4217  0.5751
 2240TIP3   OH2 7148   5.488   0.959   0.213  0.3606  0.2961 -0.2652
 2240TIP3    H1 7149   5.452   0.915   0.290  1.6800  1.9694  1.3663
 2240TIP3    H2 7150   5.423   1.026   0.191  0.0129 -0.1398 -0.5682
 2241TIP3   OH2 7151   5.052   5.796   5.675 -0.6939  0.6383  0.2656
 2241TIP3    H1 7152   4.983   5.790   5.608  1.8144 -2.5516 -2.1888
 2241TIP3    H2 7153   5.118   5.854   5.636  0.2955 -0.3583  0.4572
 2242TIP3   OH2 7154   4.874   5.105   5.811 -0.3157  0.2104 -0.3240
 2242TIP3    H1 7155   4.826   5.168   5.757  2.9727  1.8665 -1.4455
 2242TIP3    H2 7156   4.916   5.158   5.879  2.0246 -0.8022 -0.9183
 2243TIP3   OH2 7157   3.087   4.547   2.609 -0.2461  0.2146 -0.4093
 2243TIP3    H1 7158   3.138   4.467   2.622 -2.2813 -0.7709  1.7937
 2243TIP3    H2 7159   3.042   4.534   2.525  1.1200  0.0131 -1.1254
 2244TIP3   OH2 7160   1.601   0.101   0.395  0.8473 -0.5080  0.6345
 2244TIP3    H1 7161   1.601   0.197   0.395 -0.3757 -0.4940  2.3060
 2244TIP3    H2 7162   1.526   0.077   0.340  2.1599 -0.5472 -1.1941
 2245TIP3   OH2 7163   1.182   3.524   2.855  0.5892  0.3002  0.3034
 2245TIP3    H1 7164   1.242   3.468   2.806  1.1592  1.3656 -0.2401
 2245TIP3    H2 7165   1.175   3.604   2.802 -1.3059  0.1974  0.3663
 2246TIP3   OH2 7166   1.544   5.605   1.340 -0.0191 -0.0927 -0.0781
 2246TIP3    H1 7167   1.638   5.592   1.350 -0.3783 -2.7550  0.2729
 2246TIP3    H2 7168   1.520   5.550   1.266 -1.0383  1.9543 -1.3047
 2247TIP3   OH2 7169   1.201   0.768   4.028  0.4064  0.7209  0.0243
 2247TIP3    H1 7170   1.203   0.775   4.124 -0.3556  0.4845  0.0600
 2247TIP3    H2 7171   1.158   0.685   4.011 -0.5275  1.3132 -0.5390
 2248TIP3   OH2 7172   4.333   0.736   2.416 -0.4089 -0.3688  0.2601
 2248TIP3    H1 7173   4.364   0.651   2.385 -2.2372 -0.8308 -0.3034
 2248TIP3    H2 7174   4.376   0.747   2.501  1.0085 -1.1596 -0.3368
 2249TIP3   OH2 7175   4.088   4.961   4.149 -0.4027  0.1971 -0.1840
 2249TIP3    H1 7176   4.116   4.875   4.179  0.8152  0.7434  0.2818
 2249TIP3    H2 7177   4.043   5.000   4.224 -0.8788 -0.0067 -0.3663
 2250TIP3   OH2 7178   2.666   5.274   3.141  0.2656  0.3402  0.0669
 2250TIP3    H1 7179   2.667   5.319   3.226  1.0094 -0.6527  0.5969
 2250TIP3    H2 7180   2.608   5.327   3.086 -1.3594  0.2360  1.6214
 2251TIP3   OH2 7181   2.008   1.005   1.253 -0.1356 -0.4925  0.8618
 2251TIP3    H1 7182   2.002   1.094   1.219  0.6866 -0.8122 -0.1509
 2251TIP3    H2 7183   1.985   0.950   1.178  0.0317 -1.1489  1.2931
 2252TIP3   OH2 7184   1.531   5.913   1.881  0.0480  0.2116  0.5686
 2252TIP3    H1 7185   1.625   5.925   1.889 -0.1860  1.6102  1.3773
 2252TIP3    H2 7186   1.495   6.001   1.877 -1.3325 -0.2839  1.5183
 2253TIP3   OH2 7187   1.851   0.051   1.554  0.0873 -0.3466 -0.0665
 2253TIP3    H1 7188   1.904   0.031   1.476  0.8517  0.3121  0.2812
 2253TIP3    H2 7189   1.913   0.047   1.627  0.1207  2.3739  0.1305
 2254TIP3   OH2 7190   1.972   1.661   3.628  0.3321 -0.2006 -0.5454
 2254TIP3    H1 7191   2.011   1.613   3.700  4.2406  3.2855 -0.1198
 2254TIP3    H2 7192   1.879   1.636   3.629  1.0214 -3.0059  3.2979
 2255TIP3   OH2 7193   0.958   0.268   3.825 -0.5362 -0.7794  0.1877
 2255TIP3    H1 7194   0.927   0.357   3.809 -1.5278 -1.3811 -1.3592
 2255TIP3    H2 7195   1.053   0.273   3.810 -0.3539  0.3314  1.6036
 2256TIP3   OH2 7196   5.812   5.666   4.028  0.4980 -0.0855 -0.2891
 2256TIP3    H1 7197   5.771   5.694   3.947 -1.4544 -0.6708  0.4801
 2256TIP3    H2 7198   5.762   5.709   4.097  1.2171 -0.7594  0.6658
 2257TIP3   OH2 7199   0.732   0.799   1.813 -0.4776 -0.6395 -0.3066
 2257TIP3    H1 7200   0.757   0.834   1.898 -3.5455  1.5560 -0.2294
 2257TIP3    H2 7201   0.652   0.749   1.829 -0.5401 -1.0348 -1.7484
 2258TIP3   OH2 7202   3.019   1.017   3.265 -0.0286 -0.1683  0.5054
 2258TIP3    H1 7203   3.048   1.084   3.327 -0.2608  1.1430 -0.7815
 2258TIP3    H2 7204   2.961   1.064   3.205  1.5668 -1.0235 -1.7491
 2259TIP3   OH2 7205   5.184   0.293   2.992 -0.5326 -0.4505 -0.4029
 2259TIP3    H1 7206   5.121   0.363   2.975 -0.9751 -0.0310  2.6952
 2259TIP3    H2 7207   5.137   0.232   3.049  0.3868 -2.4976 -1.7543
 2260TIP3   OH2 7208   0.805   1.475   2.074  0.1151 -0.1573 -0.0205
 2260TIP3    H1 7209   0.721   1.463   2.028 -0.6183  0.3862  1.1600
 2260TIP3    H2 7210   0.796   1.423   2.153  1.0663 -0.4295 -0.0911
 2261TIP3   OH2 7211   5.035   3.725   1.652  0.0555 -0.2764 -0.1565
 2261TIP3    H1 7212   4.960   3.673   1.679  0.2940 -0.3107  0.4563
 2261TIP3    H2 7213   5.061   3.773   1.731  0.2559  0.2513 -0.5370
 2262TIP3   OH2 7214   2.261   0.931   3.355  0.2556 -0.3382  0.4488
 2262TIP3    H1 7215   2.222   0.862   3.300 -1.8882  2.0061 -1.1147
 2262TIP3    H2 7216   2.317   0.980   3.295  0.5858  0.1814  1.1763
 2263TIP3   OH2 7217   2.778   0.287   4.191  0.1087 -0.7474  0.7367
 2263TIP3    H1 7218   2.831   0.311   4.115 -2.2578 -0.6788 -0.9214
 2263TIP3    H2 7219   2.746   0.199   4.172  0.5648 -1.2769  2.2808
 2264TIP3   OH2 7220   0.140   0.611   2.990 -0.1201  0.1047 -0.9429
 2264TIP3    H1 7221   0.145   0.689   3.046 -1.5113 -0.4326 -0.0399
 2264TIP3    H2 7222   0.089   0.641   2.914  1.0040  0.5950 -1.5055
 2265TIP3   OH2 7223   1.013   1.055   1.176  0.0203  0.4457  0.2104
 2265TIP3    H1 7224   0.973   1.117   1.115  0.4529  0.9440  0.4380
 2265TIP3    H2 7225   0.938   1.012   1.219 -0.2818  0.4105 -0.3420
 2266TIP3   OH2 7226   1.390   2.063   3.443 -0.7062  0.6586 -0.0416
 2266TIP3    H1 7227   1.428   1.999   3.502  0.4267  0.6015 -0.8270
 2266TIP3    H2 7228   1.464   2.113   3.410 -1.2089  0.0482 -2.1782
 2267TIP3   OH2 7229   1.677   5.582   4.248 -0.1375 -0.3035  0.1426
 2267TIP3    H1 7230   1.636   5.666   4.270 -0.3580 -0.7221  1.3177
 2267TIP3    H2 7231   1.683   5.535   4.331  0.0509 -1.4277 -0.5011
 2268TIP3   OH2 7232   0.645   1.967   1.636 -0.1106  0.4963  0.1949
 2268TIP3    H1 7233   0.566   1.916   1.618  1.6686 -1.2787 -2.8461
 2268TIP3    H2 7234   0.676   1.995   1.550  1.0867  3.4981  1.5474
 2269TIP3   OH2 7235   1.667   2.162   2.086  0.0602 -0.1576 -0.0768
 2269TIP3    H1 7236   1.703   2.076   2.064 -0.9841 -0.3894 -0.9380
 2269TIP3    H2 7237   1.608   2.145   2.160  0.7273  0.0038  0.4893
 2270TIP3   OH2 7238   0.039   1.251   1.050 -0.1779 -0.9846  0.2899
 2270TIP3    H1 7239  -0.000   1.209   0.974 -0.0363 -1.1023  0.2827
 2270TIP3    H2 7240  -0.036   1.274   1.105 -0.3456 -0.0940 -0.2950
 2271TIP3   OH2 7241   3.024   5.831   3.225 -0.4573  0.6043  0.9028
 2271TIP3    H1 7242   3.043   5.841   3.318 -1.1291 -0.2165  1.1276
 2271TIP3    H2 7243   3.031   5.737   3.208 -0.0214  0.7848  0.0566
 2272TIP3   OH2 7244   0.000   2.818   2.531 -0.2935  0.0585  0.7551
 2272TIP3    H1 7245   0.071   2.806   2.594 -1.6772 -2.0253  1.9603
 2272TIP3    H2 7246  -0.069   2.863   2.580 -0.4453  0.6209  0.0347
 2273TIP3   OH2 7247   1.352   1.300   3.421  0.0520  0.5020  0.2774
 2273TIP3    H1 7248   1.329   1.243   3.495  0.0457 -0.6768 -0.6232
 2273TIP3    H2 7249   1.447   1.294   3.415 -0.1512 -1.4841 -1.4399
 2274TIP3   OH2 7250   3.437   0.400   3.078  0.3126  0.6773 -0.0666
 2274TIP3    H1 7251   3.368   0.339   3.102 -0.9987  1.5479 -1.5544
 2274TIP3    H2 7252   3.455   0.448   3.158  0.9449 -1.2190  0.9743
 2275TIP3   OH2 7253   0.798   5.598   2.225  0.0254 -0.0110  0.0642
 2275TIP3    H1 7254   0.805   5.675   2.283 -0.3250  1.0583 -1.3022
 2275TIP3    H2 7255   0.733   5.543   2.267  0.9128  0.0175  1.5299
 2276TIP3   OH2 7256   0.713   5.065   2.419  0.0292  0.1813  0.1398
 2276TIP3    H1 7257   0.668   5.119   2.354  0.4062  0.1232 -0.1742
 2276TIP3    H2 7258   0.646   5.006   2.452  0.2112 -0.9234 -1.4146
 2277TIP3   OH2 7259   1.126   0.165   4.548 -0.2362 -0.3665  0.5600
 2277TIP3    H1 7260   1.068   0.089   4.540  1.6054 -1.7176 -0.1148
 2277TIP3    H2 7261   1.170   0.152   4.632 -0.4723  0.3557  0.7985
 2278TIP3   OH2 7262   0.466   1.094   3.580  0.6184  0.2922  0.0276
 2278TIP3    H1 7263   0.532   1.070   3.515  1.7849  2.5626  0.3240
 2278TIP3    H2 7264   0.415   1.164   3.539  0.6156  0.9377  1.0946
 2279TIP3   OH2 7265   4.376   5.786   4.852 -0.5969 -1.0579 -0.4248
 2279TIP3    H1 7266   4.332   5.870   4.846 -0.1708 -0.7021  1.2035
 2279TIP3    H2 7267   4.305   5.723   4.866 -0.8798 -0.9278 -1.2502
 2280TIP3   OH2 7268   1.843   2.153   3.224 -0.0256  0.0208 -0.1140
 2280TIP3    H1 7269   1.911   2.120   3.283  1.5312  1.1020 -1.2627
 2280TIP3    H2 7270   1.836   2.085   3.156  0.9969  0.5955 -0.8102
 2281TIP3   OH2 7271   0.639   0.296   0.679 -0.8546 -0.0092  0.5278
 2281TIP3    H1 7272   0.647   0.209   0.719  0.7367 -0.5322 -0.9067
 2281TIP3    H2 7273   0.568   0.286   0.615  0.9184 -0.9227 -1.3374
 2282TIP3   OH2 7274   3.174   0.512   2.489 -0.4641 -0.9781  0.2965
 2282TIP3    H1 7275   3.122   0.590   2.470 -0.7434 -1.1028  0.5499
 2282TIP3    H2 7276   3.115   0.454   2.537 -0.2697 -1.3606  0.0808
 2283TIP3   OH2 7277   0.816   5.466   3.714  0.3486 -0.6596 -0.4371
 2283TIP3    H1 7278   0.873   5.407   3.665  2.1349  0.5174  0.1499
 2283TIP3    H2 7279   0.774   5.520   3.648  2.0872  0.3340 -0.7886
 2284TIP3   OH2 7280   4.857   2.649   1.888  0.3727  0.3039 -0.2626
 2284TIP3    H1 7281   4.877   2.556   1.900  2.9809  0.8648  0.0424
 2284TIP3    H2 7282   4.777   2.663   1.938  0.3082 -1.6390  0.2138
 2285TIP3   OH2 7283   1.583   2.984   3.055  0.1070  0.3082 -0.0126
 2285TIP3    H1 7284   1.516   2.945   2.997  0.2651 -0.9265  0.6189
 2285TIP3    H2 7285   1.605   2.913   3.116 -0.1094  1.6236  1.6152
 2286TIP3   OH2 7286   3.245   5.135   2.027 -0.3152  0.1271  0.3523
 2286TIP3    H1 7287   3.326   5.186   2.031  0.8546 -1.6824  0.3484
 2286TIP3    H2 7288   3.237   5.097   2.114 -0.1783 -1.1664 -0.1919
 2287TIP3   OH2 7289   0.937   0.199   2.796 -0.4064  0.2423 -0.3483
 2287TIP3    H1 7290   0.945   0.164   2.707  0.7157 -1.0378  0.2252
 2287TIP3    H2 7291   0.970   0.289   2.790  0.0262  0.0333 -1.1537
 2288TIP3   OH2 7292   1.487   4.369   1.246  0.0545 -0.1439 -0.2035
 2288TIP3    H1 7293   1.520   4.281   1.228 -0.2262 -0.1312 -0.7690
 2288TIP3    H2 7294   1.394   4.358   1.261  0.3740 -0.2394  1.8518
 2289TIP3   OH2 7295   1.405   0.120   2.318 -0.0578  0.0896  0.2932
 2289TIP3    H1 7296   1.464   0.113   2.243 -0.5434  0.4858 -0.1272
 2289TIP3    H2 7297   1.461   0.149   2.390 -0.0509  2.0855 -0.5050
 2290TIP3   OH2 7298   1.005   1.730   3.866  0.6039 -0.1769 -0.0044
 2290TIP3    H1 7299   0.943   1.659   3.885  0.9155 -0.3444  0.3881
 2290TIP3    H2 7300   0.950   1.801   3.833  0.2799 -0.5667 -0.3053
 2291TIP3   OH2 7301   2.552   5.712   2.175 -0.1927 -0.4691 -0.1481
 2291TIP3    H1 7302   2.597   5.651   2.234  1.3425 -0.4251 -1.2602
 2291TIP3    H2 7303   2.501   5.768   2.233  1.0225 -0.6591  1.1250
 2292TIP3   OH2 7304   1.309   5.386   2.316  0.2319  0.1119 -0.2488
 2292TIP3    H1 7305   1.364   5.434   2.254 -0.3938  1.6953  0.4073
 2292TIP3    H2 7306   1.271   5.315   2.264 -0.3620  1.4855 -1.7336
 2293TIP3   OH2 7307   0.262   1.401   1.133  0.1174 -0.2245 -0.1753
 2293TIP3    H1 7308   0.271   1.472   1.197  1.8342  0.5669 -1.2481
 2293TIP3    H2 7309   0.170   1.374   1.140 -0.0609  0.7495  1.6579
 2294TIP3   OH2 7310   0.515   1.819   2.897  0.4176 -0.1386 -0.4631
 2294TIP3    H1 7311   0.542   1.770   2.975  1.7964  0.9095 -0.2568
 2294TIP3    H2 7312   0.487   1.904   2.931  1.9131  0.6577 -1.1758
 2295TIP3   OH2 7313   0.058   1.833   2.097 -0.8453  0.3509  0.2398
 2295TIP3    H1 7314   0.001   1.792   2.163 -2.8683  0.8731 -1.1332
 2295TIP3    H2 7315   0.034   1.925   2.100  0.6866  0.7419  0.3671
 2296TIP3   OH2 7316   0.602   2.847   2.005  0.0455 -0.0767  0.0065
 2296TIP3    H1 7317   0.620   2.755   1.985  1.7494  0.3068 -0.2702
 2296TIP3    H2 7318   0.557   2.880   1.927  0.5447 -0.3528 -0.4000
 2297TIP3   OH2 7319   0.262   2.314   2.968  0.1248  0.7593 -0.1559
 2297TIP3    H1 7320   0.303   2.230   2.990  0.7538  1.1517  0.1960
 2297TIP3    H2 7321   0.214   2.297   2.887 -1.5495 -0.4960  1.0542
 2298TIP3   OH2 7322   1.077   2.888   3.004  0.0504 -0.0282 -0.7491
 2298TIP3    H1 7323   1.002   2.946   2.990 -1.2437 -1.8845 -1.6950
 2298TIP3    H2 7324   1.101   2.901   3.096 -2.2847 -0.3719 -0.0620
 2299TIP3   OH2 7325   4.240   0.490   0.430  0.2309  0.5047 -0.9050
 2299TIP3    H1 7326   4.244   0.397   0.449  1.4151  0.8561  0.7235
 2299TIP3    H2 7327   4.150   0.516   0.451 -0.2089 -0.3255 -1.7301
 2300TIP3   OH2 7328   5.990   5.973   2.424 -0.4201  0.2060 -0.1479
 2300TIP3    H1 7329   6.054   5.977   2.495 -1.4540  0.2648  0.7871
 2300TIP3    H2 7330   5.936   5.897   2.444  0.4334 -0.8866 -1.8742
 2301TIP3   OH2 7331   4.971   6.099   2.144 -0.6025  0.5936 -0.6150
 2301TIP3    H1 7332   5.032   6.139   2.082  0.8332 -0.3550  0.1645
 2301TIP3    H2 7333   5.002   6.009   2.154 -2.3798 -0.0207 -0.5085
 2302TIP3   OH2 7334   0.914   4.826   0.295  0.3956 -0.2197 -0.2933
 2302TIP3    H1 7335   0.980   4.895   0.290 -0.2400  0.4013 -0.3310
 2302TIP3    H2 7336   0.959   4.751   0.333  1.2382  0.0429 -0.7689
 2303TIP3   OH2 7337   0.681   3.814   0.658  0.0135 -0.0720 -0.3682
 2303TIP3    H1 7338   0.696   3.816   0.752  0.5088  0.6109 -0.4550
 2303TIP3    H2 7339   0.767   3.830   0.619 -0.2948  0.2906 -0.9246
 2304TIP3   OH2 7340   3.452   5.247   4.530 -0.5445  0.1658  0.0774
 2304TIP3    H1 7341   3.370   5.278   4.570 -1.0962  0.0766 -0.9817
 2304TIP3    H2 7342   3.520   5.278   4.590 -1.2587  1.3947  0.2741
 2305TIP3   OH2 7343   1.904   0.895   0.595 -0.0298  0.5370 -0.0736
 2305TIP3    H1 7344   1.920   0.958   0.664 -1.0354  0.1976  0.4846
 2305TIP3    H2 7345   1.824   0.926   0.552  1.0899  1.2553 -1.6888
 2306TIP3   OH2 7346   5.710   2.014   0.376 -0.2500  0.1016  0.0340
 2306TIP3    H1 7347   5.721   2.037   0.284 -0.3457  2.0544  0.4847
 2306TIP3    H2 7348   5.615   2.015   0.390 -0.2751 -0.9629 -0.0233
 2307TIP3   OH2 7349   3.096   2.781   0.973 -0.2354  0.1189 -0.2460
 2307TIP3    H1 7350   3.169   2.815   1.025 -0.4017 -0.5295  0.4209
 2307TIP3    H2 7351   3.062   2.708   1.024 -1.3801  0.4303 -0.5409
 2308TIP3   OH2 7352   5.237   5.358   1.675 -0.5523 -0.1289 -0.4141
 2308TIP3    H1 7353   5.209   5.385   1.763  1.0580 -0.3321  0.1737
 2308TIP3    H2 7354   5.223   5.263   1.675  1.4660 -0.4512  0.4021
 2309TIP3   OH2 7355   0.569   0.528   0.443 -0.0185  0.0155  0.0016
 2309TIP3    H1 7356   0.535   0.439   0.456  0.0219  0.0673  0.4476
 2309TIP3    H2 7357   0.651   0.515   0.396  0.3262 -0.2250  0.6676
 2310TIP3   OH2 7358   0.466   3.569   3.853 -0.7483 -0.7569  0.0543
 2310TIP3    H1 7359   0.511   3.628   3.793 -2.6872 -0.0757 -0.7608
 2310TIP3    H2 7360   0.471   3.483   3.811 -0.0483 -0.7265  0.0705
 2311TIP3   OH2 7361   5.775   2.151   2.020  0.2961 -0.0490 -0.0299
 2311TIP3    H1 7362   5.749   2.169   1.930 -2.7171  2.0956  1.1882
 2311TIP3    H2 7363   5.751   2.059   2.034 -0.2168 -0.0827 -1.0819
 2312TIP3   OH2 7364   1.199   0.111   2.895 -0.2582 -0.2223 -0.4799
 2312TIP3    H1 7365   1.117   0.158   2.883  0.8530  1.4159 -2.0149
 2312TIP3    H2 7366   1.190   0.032   2.841 -1.1831 -0.5483  0.1378
 2313TIP3   OH2 7367   5.669   0.484   3.380 -0.0087  0.0273  0.1608
 2313TIP3    H1 7368   5.702   0.403   3.340 -1.3189 -1.1097  1.3055
 2313TIP3    H2 7369   5.574   0.476   3.373 -0.4171 -1.1711  5.2044
 2314TIP3   OH2 7370   2.393   0.141   1.777 -0.4612 -0.3694 -0.4576
 2314TIP3    H1 7371   2.416   0.103   1.692 -0.8744 -0.3676 -0.5706
 2314TIP3    H2 7372   2.345   0.072   1.822  0.2540 -0.5657 -0.0018
 2315TIP3   OH2 7373   6.087   0.977   5.742  0.1087 -0.4368  0.0981
 2315TIP3    H1 7374   6.155   1.035   5.778 -2.0827  1.8176  0.7545
 2315TIP3    H2 7375   6.064   1.018   5.658 -1.8827  0.0038  0.8411
 2316TIP3   OH2 7376   0.189   1.071   2.070 -0.9093  0.1003  0.1448
 2316TIP3    H1 7377   0.244   1.043   2.142 -1.3738  0.5453  0.6783
 2316TIP3    H2 7378   0.238   1.047   1.991  1.3727  3.0151  0.5885
 2317TIP3   OH2 7379   0.023   5.610   3.315  0.1774  0.2981  0.3652
 2317TIP3    H1 7380   0.028   5.653   3.230 -0.5747 -2.3339 -1.0375
 2317TIP3    H2 7381  -0.070   5.596   3.330  0.4261 -1.0551  0.7060
 2318TIP3   OH2 7382   0.531   1.024   1.810  0.4673  0.6711  0.3056
 2318TIP3    H1 7383   0.609   1.070   1.841  0.3598  0.4792  0.8696
 2318TIP3    H2 7384   0.502   0.973   1.886 -0.6399  1.3174  0.3232
 2319TIP3   OH2 7385   3.550   1.755   4.488  0.2756  0.0010 -0.4122
 2319TIP3    H1 7386   3.606   1.686   4.453 -0.1310  0.6053 -2.3428
 2319TIP3    H2 7387   3.540   1.734   4.581  1.8173 -1.3781 -0.5417
 2320TIP3   OH2 7388   4.100   0.762   1.541  0.0015 -0.1955  0.3774
 2320TIP3    H1 7389   4.048   0.795   1.468 -1.7199  0.0310  1.6659
 2320TIP3    H2 7390   4.190   0.783   1.518 -0.4249 -0.8583 -2.0499
 2321TIP3   OH2 7391   1.497   1.208   1.890 -0.3002 -0.8133  0.1318
 2321TIP3    H1 7392   1.495   1.157   1.971 -2.9619  0.2321  0.7716
 2321TIP3    H2 7393   1.590   1.224   1.874  0.2260 -0.1892  3.5249
 2322TIP3   OH2 7394   1.689   1.955   3.546 -0.6561 -0.1433 -0.2429
 2322TIP3    H1 7395   1.625   1.984   3.611 -1.7141 -0.2122 -1.2241
 2322TIP3    H2 7396   1.678   2.017   3.473  2.5368  1.7187  0.7743
 2323TIP3   OH2 7397   1.531   0.465   3.946  0.0368  0.1667  0.2438
 2323TIP3    H1 7398   1.570   0.382   3.920  0.6047  0.5704 -0.2199
 2323TIP3    H2 7399   1.447   0.442   3.986  0.3779 -0.6513  0.4787
 2324TIP3   OH2 7400   2.337   0.500   2.675  0.1051 -0.0332 -0.7266
 2324TIP3    H1 7401   2.366   0.559   2.606 -1.7185  0.1555 -1.3544
 2324TIP3    H2 7402   2.329   0.415   2.632  0.2295 -0.1919 -0.4362
 2325TIP3   OH2 7403   1.728   5.370   2.636  0.2284  0.2740  0.0447
 2325TIP3    H1 7404   1.659   5.326   2.585  1.1721  0.9458 -1.8460
 2325TIP3    H2 7405   1.775   5.299   2.679  0.6120 -0.4466 -1.5506
 2326TIP3   OH2 7406   2.803   0.393   2.383  0.4195  0.3576  0.7353
 2326TIP3    H1 7407   2.801   0.471   2.438 -1.6486  2.0013 -1.5267
 2326TIP3    H2 7408   2.760   0.420   2.302 -0.3075 -3.1241 -0.1411
 2327TIP3   OH2 7409   0.465   5.414   3.521 -0.5380 -0.0868  0.3461
 2327TIP3    H1 7410   0.475   5.506   3.548 -1.7439  0.6910 -1.7657
 2327TIP3    H2 7411   0.379   5.389   3.553 -0.6252 -0.1858  0.0269
 2328TIP3   OH2 7412   1.221   6.054   1.328  0.3705  0.0850 -0.3998
 2328TIP3    H1 7413   1.312   6.025   1.316  0.0003 -0.8574 -0.9584
 2328TIP3    H2 7414   1.209   6.054   1.423  0.6331 -0.8088 -0.3580
 2329TIP3   OH2 7415   2.912   5.475   3.789 -1.0392 -0.4152  0.3254
 2329TIP3    H1 7416   2.960   5.539   3.843  0.6714 -0.2969 -1.2675
 2329TIP3    H2 7417   2.967   5.396   3.792 -1.4506 -0.7275 -0.4149
 2330TIP3   OH2 7418   5.552   4.137   2.555 -0.0327 -0.5676 -0.0970
 2330TIP3    H1 7419   5.590   4.062   2.509 -0.6774 -1.0268  0.1211
 2330TIP3    H2 7420   5.606   4.211   2.527  2.0137 -1.4411  1.3789
 2331TIP3   OH2 7421   0.292   0.093   4.700  0.3083  0.1288  0.4232
 2331TIP3    H1 7422   0.275   0.003   4.673  0.6690 -0.3676  1.8155
 2331TIP3    H2 7423   0.329   0.135   4.622 -0.2243 -0.8162 -0.3446
 2332TIP3   OH2 7424   3.123   1.382   2.474 -0.0017  0.1170  0.6666
 2332TIP3    H1 7425   3.201   1.404   2.525  1.8099  3.1974 -3.1209
 2332TIP3    H2 7426   3.055   1.440   2.509  0.6210  0.6312  1.0526
 2333TIP3   OH2 7427   0.846   3.298   3.140 -0.9829 -0.1402 -0.3049
 2333TIP3    H1 7428   0.918   3.266   3.195 -1.0793  0.3466  0.1070
 2333TIP3    H2 7429   0.885   3.367   3.087 -1.1420  0.1059 -0.1000
 2334TIP3   OH2 7430   1.559   4.733   4.491  0.0929  0.0241 -0.0932
 2334TIP3    H1 7431   1.645   4.690   4.489  0.6698  1.1694 -0.4144
 2334TIP3    H2 7432   1.499   4.669   4.453  1.0955 -0.1688 -1.3804
 2335TIP3   OH2 7433   1.478   2.770   2.892  0.1581 -0.0397 -0.0563
 2335TIP3    H1 7434   1.462   2.834   2.822 -1.6130 -0.4985 -0.0929
 2335TIP3    H2 7435   1.510   2.692   2.846 -0.8795 -0.2979 -0.3467
 2336TIP3   OH2 7436   0.942   0.483   1.042 -0.4149  0.1453  0.2248
 2336TIP3    H1 7437   0.939   0.415   1.108 -0.7726 -0.0795 -0.0229
 2336TIP3    H2 7438   0.882   0.453   0.973 -0.0644  0.3832 -0.1899
 2337TIP3   OH2 7439   0.700   1.450   2.884  0.1637 -0.2314  0.0662
 2337TIP3    H1 7440   0.618   1.437   2.932  0.2772  0.6113  0.4980
 2337TIP3    H2 7441   0.672   1.466   2.794 -0.1494  0.0721  0.2149
 2338TIP3   OH2 7442   0.177   0.910   0.859 -0.3868 -0.0942  0.0114
 2338TIP3    H1 7443   0.254   0.854   0.856 -0.1012  0.2927  0.1715
 2338TIP3    H2 7444   0.167   0.933   0.951  1.3427  2.6900 -0.4630
 2339TIP3   OH2 7445   1.249   1.359   1.597 -0.8724 -0.0442  0.2471
 2339TIP3    H1 7446   1.207   1.350   1.511  0.9878 -1.8350 -0.4900
 2339TIP3    H2 7447   1.265   1.453   1.606  1.0237 -0.0644 -2.4175
 2340TIP3   OH2 7448   1.754   3.011   2.781  0.3476 -0.1350 -0.4377
 2340TIP3    H1 7449   1.728   2.988   2.870 -0.9631 -0.7163 -0.9671
 2340TIP3    H2 7450   1.771   3.106   2.785  1.1227 -0.3070  0.6111
 2341TIP3   OH2 7451   2.355   1.797   3.624  0.7191 -0.5049 -0.3404
 2341TIP3    H1 7452   2.345   1.701   3.627 -1.8713 -0.2572  0.0652
 2341TIP3    H2 7453   2.345   1.824   3.715 -2.3153  0.4368 -0.8929
 2342TIP3   OH2 7454   5.698   0.397   4.628  0.5825 -0.2459 -0.0080
 2342TIP3    H1 7455   5.767   0.464   4.623 -0.1563  0.6983  1.7146
 2342TIP3    H2 7456   5.686   0.367   4.538  0.8063  2.0901 -0.8547
 2343TIP3   OH2 7457   3.315   2.461   4.630 -0.0982 -0.0808 -0.1800
 2343TIP3    H1 7458   3.318   2.371   4.664 -2.3176  0.2362  0.9655
 2343TIP3    H2 7459   3.223   2.486   4.638  0.3173  1.9299 -1.4870
 2344TIP3   OH2 7460   0.835   5.186   5.875 -0.0368  0.0330  0.5724
 2344TIP3    H1 7461   0.876   5.100   5.878 -0.5445 -0.1928  1.2995
 2344TIP3    H2 7462   0.742   5.168   5.859 -0.1097  0.4522  0.5016
 2345TIP3   OH2 7463   1.741   1.768   4.967 -0.1582 -0.2752 -0.2140
 2345TIP3    H1 7464   1.813   1.707   4.985 -0.1187  0.1895  1.3542
 2345TIP3    H2 7465   1.677   1.749   5.036 -1.0755  0.0295 -0.9762
 2346TIP3   OH2 7466   0.266   1.692   2.374  0.0548  0.0355  0.6471
 2346TIP3    H1 7467   0.308   1.612   2.404  1.7001  0.7982  0.4271
 2346TIP3    H2 7468   0.277   1.754   2.447 -0.7680  0.2148  0.6244
 2347TIP3   OH2 7469   2.229   5.990   3.219  0.1908 -0.0751  0.1388
 2347TIP3    H1 7470   2.297   6.046   3.182 -1.2414  1.5753 -0.0922
 2347TIP3    H2 7471   2.267   5.955   3.300  0.9796  1.5451  0.4882
 2348TIP3   OH2 7472   0.611   0.159   1.766 -0.3409 -0.0777  0.1754
 2348TIP3    H1 7473   0.614   0.065   1.779 -4.0806 -0.4232 -0.9454
 2348TIP3    H2 7474   0.600   0.170   1.671  1.5486  1.5651  0.1021
 2349TIP3   OH2 7475   1.249   0.939   1.288  0.0443  0.4468 -0.2259
 2349TIP3    H1 7476   1.164   0.961   1.249  0.7161  3.5120 -0.0848
 2349TIP3    H2 7477   1.268   0.850   1.257 -2.2187  0.5415 -1.9764
 2350TIP3   OH2 7478   1.707   5.501   0.351 -0.1299 -0.3046 -0.3665
 2350TIP3    H1 7479   1.737   5.516   0.261  1.2568  0.9131  0.2658
 2350TIP3    H2 7480   1.612   5.493   0.344 -0.1105  0.5677 -1.8541
 2351TIP3   OH2 7481   2.599   0.737   2.067  0.1516  0.0593  0.3100
 2351TIP3    H1 7482   2.545   0.732   2.146  2.3087 -0.0252  1.7997
 2351TIP3    H2 7483   2.561   0.809   2.017 -0.9027  0.4663  1.6717
 2352TIP3   OH2 7484   5.417   3.553   2.024  0.4848  0.3768  0.2432
 2352TIP3    H1 7485   5.359   3.597   2.086 -1.5062  0.1892 -1.4683
 2352TIP3    H2 7486   5.413   3.607   1.945 -1.9189 -2.7403 -1.8661
 2353TIP3   OH2 7487   1.853   0.232   2.680  0.1546 -0.7150  0.0319
 2353TIP3    H1 7488   1.765   0.224   2.643 -0.2290 -0.9854  0.9825
 2353TIP3    H2 7489   1.911   0.202   2.611 -0.3221  1.7341 -1.5237
 2354TIP3   OH2 7490   0.948   4.813   2.095  0.0151  0.3429  0.0706
 2354TIP3    H1 7491   0.929   4.831   2.003  0.7700  0.7276 -0.0123
 2354TIP3    H2 7492   0.980   4.723   2.096 -0.7489  0.0742  0.0604
 2355TIP3   OH2 7493   5.816   2.349   3.059 -0.1925 -0.6416 -0.4174
 2355TIP3    H1 7494   5.812   2.441   3.086  0.1268 -0.0467 -2.2739
 2355TIP3    H2 7495   5.906   2.337   3.027 -0.6351 -1.1891 -1.5002
 2356TIP3   OH2 7496   0.725   6.048   0.870  0.2300  0.3538  0.2716
 2356TIP3    H1 7497   0.747   6.106   0.943  1.5774  0.1515  0.0461
 2356TIP3    H2 7498   0.639   6.079   0.840 -0.6435  0.0253  2.3392
 2357TIP3   OH2 7499   1.687   0.159   3.945 -0.3473  0.1480  0.2155
 2357TIP3    H1 7500   1.690   0.065   3.925 -1.9835  0.2660 -0.6949
 2357TIP3    H2 7501   1.630   0.165   4.022 -0.9481  0.4663 -0.2516
 2358TIP3   OH2 7502   5.254   5.519   3.009  0.1921 -0.3512  0.1923
 2358TIP3    H1 7503   5.241   5.480   3.095  1.3581 -0.2127  0.4413
 2358TIP3    H2 7504   5.264   5.444   2.950  1.0069 -0.4375  0.4389
 2359TIP3   OH2 7505   5.190   1.184   2.518 -0.5806 -0.4305  0.0082
 2359TIP3    H1 7506   5.233   1.268   2.504 -1.8289  0.2672  0.2406
 2359TIP3    H2 7507   5.193   1.171   2.613  0.0855 -0.9130 -0.0748
 2360TIP3   OH2 7508   2.308   0.925   0.634  0.2929 -0.3255 -0.1513
 2360TIP3    H1 7509   2.246   0.852   0.634 -1.4457  1.0685 -2.2990
 2360TIP3    H2 7510   2.377   0.897   0.574 -0.7376  0.0421 -1.5479
 2361TIP3   OH2 7511   0.641   1.666   3.084  0.7663 -0.2717  0.3685
 2361TIP3    H1 7512   0.599   1.606   3.146 -0.9843  0.4050 -0.1274
 2361TIP3    H2 7513   0.699   1.610   3.032 -0.4284 -1.4310  0.2650
 2362TIP3   OH2 7514   3.513   1.203   3.073  0.9144 -0.1536  0.1256
 2362TIP3    H1 7515   3.420   1.223   3.077  1.2458  1.3620  0.4968
 2362TIP3    H2 7516   3.517   1.107   3.070 -0.5756 -0.2870  1.8631
 2363TIP3   OH2 7517   6.068   5.160   2.469 -0.1330 -0.7138 -0.2016
 2363TIP3    H1 7518   6.154   5.128   2.495  0.1332 -0.0364 -0.2519
 2363TIP3    H2 7519   6.037   5.210   2.545 -0.4206 -0.8195 -0.2456
 2364TIP3   OH2 7520   0.573   5.879   5.586  0.0399 -0.2701 -0.2768
 2364TIP3    H1 7521   0.483   5.888   5.555  0.0259  0.5514 -0.0167
 2364TIP3    H2 7522   0.583   5.949   5.651  0.8213 -0.4424 -0.2036
 2365TIP3   OH2 7523   2.902   1.786   3.436  0.0479 -0.1430 -0.2353
 2365TIP3    H1 7524   2.957   1.817   3.364  0.3141 -2.1482 -0.9296
 2365TIP3    H2 7525   2.837   1.855   3.448  0.0452  0.2596 -2.3549
 2366TIP3   OH2 7526   2.068   5.779   1.393 -0.5181  0.2479  0.3334
 2366TIP3    H1 7527   2.028   5.766   1.307 -0.3525 -0.7015  0.3992
 2366TIP3    H2 7528   2.073   5.691   1.431  0.4947  0.5144  0.8335
 2367TIP3   OH2 7529   5.404   2.746   2.573 -0.0630 -0.0294  0.1624
 2367TIP3    H1 7530   5.417   2.790   2.489 -1.0537  2.4554  1.2416
 2367TIP3    H2 7531   5.445   2.661   2.562  0.1245  0.3647 -2.7308
 2368TIP3   OH2 7532   1.107   1.108   5.030 -0.1022 -0.7545  0.1759
 2368TIP3    H1 7533   1.189   1.126   4.985 -0.5419  1.4517  0.2119
 2368TIP3    H2 7534   1.129   1.109   5.123 -0.5468  2.2378  0.3121
 2369TIP3   OH2 7535   0.506   2.218   3.055 -0.4280 -0.3574 -0.2663
 2369TIP3    H1 7536   0.524   2.134   3.098 -0.1583 -0.0201  0.2967
 2369TIP3    H2 7537   0.585   2.235   3.003 -0.7193 -0.7245 -0.8352
 2370TIP3   OH2 7538   0.826   3.562   0.060  0.6012  0.2148 -0.5618
 2370TIP3    H1 7539   0.823   3.582  -0.033 -0.1805 -1.2945 -0.8833
 2370TIP3    H2 7540   0.739   3.587   0.093  0.9689  1.0014 -0.1748
 2371TIP3   OH2 7541   1.512   3.656   1.407  0.4640 -0.5572  0.2052
 2371TIP3    H1 7542   1.531   3.677   1.499 -0.7558  0.4149  0.2564
 2371TIP3    H2 7543   1.468   3.571   1.411  1.0352 -0.8422  0.4580
 2372TIP3   OH2 7544   1.031   3.197   2.309  0.2170 -0.3235 -0.0590
 2372TIP3    H1 7545   0.984   3.272   2.271 -0.2586 -0.4076  0.3593
 2372TIP3    H2 7546   0.994   3.121   2.265  0.0886 -0.3773  0.1439
 2373TIP3   OH2 7547   1.088   5.174   4.360 -0.1985  0.4292 -0.0547
 2373TIP3    H1 7548   1.081   5.080   4.377  1.7494  0.0925 -0.9578
 2373TIP3    H2 7549   1.036   5.215   4.429  1.7679 -1.1582  2.4628
 2374TIP3   OH2 7550   0.492   1.677   0.307  0.0139 -0.1965  0.2955
 2374TIP3    H1 7551   0.542   1.678   0.388  0.9739  1.1343 -0.2934
 2374TIP3    H2 7552   0.546   1.627   0.246  0.7001  1.3460 -0.3779
 2375TIP3   OH2 7553   1.918   5.148   2.581  0.0451  0.0744 -0.3298
 2375TIP3    H1 7554   1.972   5.169   2.505 -0.2614  1.6592 -0.1165
 2375TIP3    H2 7555   1.976   5.161   2.656 -0.4432  1.1595 -0.1388
 2376TIP3   OH2 7556   5.872   1.799   2.544 -0.7625 -0.2658  0.0870
 2376TIP3    H1 7557   5.784   1.794   2.508 -1.3086 -0.5136  1.4189
 2376TIP3    H2 7558   5.925   1.836   2.474 -2.0475  0.4438 -0.5185
 2377TIP3   OH2 7559   1.022   0.523   3.591  0.1125 -0.1439 -0.3145
 2377TIP3    H1 7560   1.102   0.517   3.539 -0.4472 -1.3710 -1.0609
 2377TIP3    H2 7561   0.959   0.568   3.535 -0.1838 -0.5618 -0.3227
 2378TIP3   OH2 7562   1.613   0.573   3.714  0.1231 -0.0574 -0.1840
 2378TIP3    H1 7563   1.599   0.552   3.807  0.1255 -1.5049 -0.5017
 2378TIP3    H2 7564   1.574   0.500   3.667  2.5524 -0.7018 -1.2527
 2379TIP3   OH2 7565   0.737   4.953   4.294 -0.1290 -0.3335 -0.2720
 2379TIP3    H1 7566   0.749   4.887   4.226 -0.1386  0.1260 -0.7206
 2379TIP3    H2 7567   0.645   4.976   4.290  0.1569  0.6999 -1.0365
 2380TIP3   OH2 7568   0.573   4.700   2.607  0.3847  0.3456 -0.1632
 2380TIP3    H1 7569   0.599   4.789   2.627  1.7208  0.3884 -1.9452
 2380TIP3    H2 7570   0.613   4.647   2.676  0.0961  1.0533  0.5505
 2381TIP3   OH2 7571   1.072   0.045   2.092  0.6226 -0.5752 -0.1813
 2381TIP3    H1 7572   1.115  -0.033   2.128 -0.7727 -0.4489  1.8992
 2381TIP3    H2 7573   1.144   0.102   2.067  1.6652 -2.0513 -0.6475
 2382TIP3   OH2 7574   1.045   6.014   3.505 -0.1688  0.1822 -0.4253
 2382TIP3    H1 7575   1.090   6.020   3.589  0.7583  1.1956 -0.9815
 2382TIP3    H2 7576   0.979   6.083   3.508 -2.4152 -1.9810  0.8047
 2383TIP3   OH2 7577   1.368   1.041   1.038 -0.2159 -0.2005  0.1584
 2383TIP3    H1 7578   1.333   1.116   1.087  0.3910  0.9922 -1.1892
 2383TIP3    H2 7579   1.291   0.990   1.013 -0.7329  0.6678 -0.0216
 2384TIP3   OH2 7580   0.543   5.610   5.760 -0.6093 -0.1466 -0.0923
 2384TIP3    H1 7581   0.500   5.654   5.686 -0.3093  1.0386  0.4194
 2384TIP3    H2 7582   0.523   5.517   5.748 -1.3146  0.1346 -1.1680
 2385TIP3   OH2 7583   5.657   5.812   3.801  0.3856  0.3177 -0.8511
 2385TIP3    H1 7584   5.725   5.865   3.758 -0.8050  1.1054 -1.7984
 2385TIP3    H2 7585   5.575   5.842   3.762 -0.5610 -0.3177  0.6089
 2386TIP3   OH2 7586   1.415   1.769   2.902 -0.1174 -0.3313  0.6958
 2386TIP3    H1 7587   1.444   1.831   2.968  0.6686 -1.2563  1.2376
 2386TIP3    H2 7588   1.347   1.815   2.852 -0.7672  0.3433  2.1950
 2387TIP3   OH2 7589   1.516   1.490   4.183  0.4032 -0.3481 -0.2694
 2387TIP3    H1 7590   1.481   1.403   4.204 -2.8710  1.4319  1.8555
 2387TIP3    H2 7591   1.471   1.514   4.102 -1.5236  0.8832  1.1281
 2388TIP3   OH2 7592   5.618   0.745   3.905 -0.3776  0.1604  0.1095
 2388TIP3    H1 7593   5.536   0.793   3.893  0.2343  0.8759 -1.2692
 2388TIP3    H2 7594   5.627   0.694   3.825 -1.8658 -3.6147  2.2308
 2389TIP3   OH2 7595   4.984   0.332   3.542 -0.0215  0.7248  0.2753
 2389TIP3    H1 7596   5.061   0.383   3.518 -0.8229  1.3161 -1.0705
 2389TIP3    H2 7597   5.019   0.245   3.565  0.8515  0.4211 -2.1214
 2390TIP3   OH2 7598   2.595   0.477   2.202 -0.9746  0.0573 -0.0106
 2390TIP3    H1 7599   2.603   0.513   2.114 -1.0862  2.2505  0.8184
 2390TIP3    H2 7600   2.544   0.543   2.250 -2.2900 -1.8464  1.2809
 2391TIP3   OH2 7601   2.704   5.085   2.643 -0.3022 -0.7281  0.0283
 2391TIP3    H1 7602   2.783   5.035   2.664 -0.1185 -0.3283  0.2940
 2391TIP3    H2 7603   2.715   5.168   2.689 -1.4304 -1.1255  1.0581
 2392TIP3   OH2 7604   2.275   1.231   4.415  0.2926 -0.2228  0.2876
 2392TIP3    H1 7605   2.352   1.180   4.391  0.3400  0.4236 -0.9734
 2392TIP3    H2 7606   2.260   1.209   4.507 -0.4782 -3.5570 -0.5457
 2393TIP3   OH2 7607   1.182   2.202   3.536 -0.0119  0.3181  0.3527
 2393TIP3    H1 7608   1.188   2.247   3.451 -0.0733 -1.4342 -0.5994
 2393TIP3    H2 7609   1.245   2.130   3.530  0.6856  0.7494  2.1775
 2394TIP3   OH2 7610   4.687   0.812   4.652  0.1216  0.1995  0.7307
 2394TIP3    H1 7611   4.608   0.865   4.664  0.2603  0.7719 -0.6841
 2394TIP3    H2 7612   4.743   0.833   4.726 -1.4182 -0.9066  2.2517
 2395TIP3   OH2 7613   1.634   2.231   4.360 -0.3188 -0.0147  0.1898
 2395TIP3    H1 7614   1.557   2.213   4.307 -0.8956  0.3889  0.8717
 2395TIP3    H2 7615   1.700   2.170   4.329 -1.5969 -1.8784  1.0758
 2396TIP3   OH2 7616   5.455   2.246   2.695  0.3949 -0.5721 -0.1148
 2396TIP3    H1 7617   5.404   2.307   2.642  1.0459 -0.3320 -0.4717
 2396TIP3    H2 7618   5.390   2.200   2.748 -0.0817  0.7217  0.4571
 2397TIP3   OH2 7619   0.140   2.414   0.632  0.3014  0.0792 -0.4169
 2397TIP3    H1 7620   0.197   2.489   0.647 -0.1028  0.0965  1.1200
 2397TIP3    H2 7621   0.058   2.436   0.678 -0.1321 -0.9058 -0.7037
 2398TIP3   OH2 7622   1.474   1.473   2.284 -0.3219 -0.0789 -0.2090
 2398TIP3    H1 7623   1.455   1.467   2.378 -2.3605  0.3845 -0.5776
 2398TIP3    H2 7624   1.393   1.505   2.245 -0.0193 -1.7906 -2.3364
 2399TIP3   OH2 7625   3.018   2.378   4.387  0.1609 -0.6341 -0.0187
 2399TIP3    H1 7626   3.037   2.292   4.349 -2.4985 -0.7561 -1.2364
 2399TIP3    H2 7627   2.967   2.423   4.319 -1.7764  0.4284  2.0651
 2400TIP3   OH2 7628   2.352   1.386   3.238  0.1384  0.1316 -0.1625
 2400TIP3    H1 7629   2.395   1.472   3.244  0.5945 -0.0607 -0.5907
 2400TIP3    H2 7630   2.409   1.327   3.288 -1.2916  0.4869  1.9359
 2401TIP3   OH2 7631   0.829   0.794   2.462  0.2249  0.0610  0.5816
 2401TIP3    H1 7632   0.755   0.773   2.520 -0.2990 -1.1553 -0.4976
 2401TIP3    H2 7633   0.803   0.758   2.377  1.6683  0.4453 -0.0266
 2402TIP3   OH2 7634   1.108   1.309   3.291  0.3793  0.4534 -0.1791
 2402TIP3    H1 7635   1.198   1.312   3.322  0.0529  1.7408  0.6904
 2402TIP3    H2 7636   1.080   1.219   3.308  1.3143  0.2014  0.0574
 2403TIP3   OH2 7637   2.252   0.446   2.391 -0.4847 -0.1961 -0.1129
 2403TIP3    H1 7638   2.158   0.449   2.404 -0.3383  0.2603  0.9371
 2403TIP3    H2 7639   2.279   0.537   2.389 -0.0986 -0.3223 -0.6394
 2404TIP3   OH2 7640   2.755   5.573   3.585 -0.7801 -0.3093 -0.5984
 2404TIP3    H1 7641   2.791   5.514   3.652 -0.4432  1.7070  1.0473
 2404TIP3    H2 7642   2.766   5.661   3.622 -3.2627  0.6566 -2.0491
 2405TIP3   OH2 7643   1.791   6.023   4.174 -0.7607 -0.3842  0.4539
 2405TIP3    H1 7644   1.792   6.118   4.174  0.1433 -0.3865  1.0883
 2405TIP3    H2 7645   1.748   5.999   4.092  1.6406  0.5599 -1.1264
 2406TIP3   OH2 7646   2.180   1.889   0.751 -0.1800  0.5243 -0.6047
 2406TIP3    H1 7647   2.167   1.865   0.660  0.7417  2.1300 -1.1742
 2406TIP3    H2 7648   2.255   1.836   0.779 -0.3636  0.1506 -0.8083
 2407TIP3   OH2 7649   3.774   6.059   2.232  0.1444 -0.4349 -0.4782
 2407TIP3    H1 7650   3.684   6.057   2.198 -1.0178 -0.3779  2.4711
 2407TIP3    H2 7651   3.787   5.971   2.270  0.8847 -0.0455  0.1851
 2408TIP3   OH2 7652   3.742   0.582   1.758 -0.7830 -0.6014  0.3655
 2408TIP3    H1 7653   3.798   0.622   1.824 -1.8498  2.2465 -0.4171
 2408TIP3    H2 7654   3.668   0.546   1.808  0.3351 -1.9647  1.0950
 2409TIP3   OH2 7655   0.161   0.143   3.411  0.4514 -0.2295  1.0478
 2409TIP3    H1 7656   0.170   0.225   3.460 -1.6166  0.2660  0.6406
 2409TIP3    H2 7657   0.233   0.144   3.348  0.6487  1.1079  1.2851
 2410TIP3   OH2 7658   4.203   0.565   5.488  0.0124  0.2372 -0.5738
 2410TIP3    H1 7659   4.152   0.519   5.421  0.1931 -1.4157  0.3696
 2410TIP3    H2 7660   4.268   0.615   5.440 -0.3435 -0.3376 -1.6652
 2411TIP3   OH2 7661   3.457   5.534   4.016  0.6412 -0.3943  0.2628
 2411TIP3    H1 7662   3.446   5.465   4.081  0.5025 -1.4182 -0.8322
 2411TIP3    H2 7663   3.416   5.500   3.937 -1.3203  1.8115  0.2792
 2412TIP3   OH2 7664   4.556   0.368   0.162  0.1761  0.2505  0.3415
 2412TIP3    H1 7665   4.545   0.307   0.089  0.7442 -0.6837  1.0175
 2412TIP3    H2 7666   4.566   0.312   0.239  0.2997  1.2063  1.0352
 2413TIP3   OH2 7667   2.936   1.388   0.911 -0.1322 -0.1188 -0.4664
 2413TIP3    H1 7668   3.021   1.355   0.881  0.5124  0.3233  0.8226
 2413TIP3    H2 7669   2.929   1.356   1.001 -1.0721  0.3403 -0.3762
 2414TIP3   OH2 7670   0.445   1.739   1.600 -0.4198  0.1393 -0.7528
 2414TIP3    H1 7671   0.502   1.663   1.605  0.0619  0.4858 -0.9936
 2414TIP3    H2 7672   0.390   1.722   1.523 -2.1930 -1.2607  0.7737
 2415TIP3   OH2 7673   3.007   4.799   2.073  0.3309  0.0527 -0.0244
 2415TIP3    H1 7674   3.020   4.885   2.034  0.9581  0.1507  0.3994
 2415TIP3    H2 7675   2.918   4.802   2.108  0.0569  0.2419 -0.7356
 2416TIP3   OH2 7676   0.553   0.480   2.132 -0.0982  0.6586 -0.1737
 2416TIP3    H1 7677   0.551   0.384   2.130  1.3950  0.5806  1.7022
 2416TIP3    H2 7678   0.489   0.506   2.065 -0.6296 -1.6337 -0.5977
 2417TIP3   OH2 7679   2.745   6.011   2.641  0.3416  0.3733  0.1844
 2417TIP3    H1 7680   2.833   6.048   2.633  0.0430  0.6899 -1.9996
 2417TIP3    H2 7681   2.734   5.959   2.561 -1.4338  0.3302  0.4382
 2418TIP3   OH2 7682   2.131   1.219   2.373 -0.8408  0.1467  0.2424
 2418TIP3    H1 7683   2.157   1.311   2.372 -2.3840  0.6121 -3.3726
 2418TIP3    H2 7684   2.055   1.217   2.432  0.6985  0.6803  2.3084
 2419TIP3   OH2 7685   1.622   0.443   1.880  0.1000  0.3899 -0.2246
 2419TIP3    H1 7686   1.541   0.486   1.852 -1.1575 -0.9090  1.3560
 2419TIP3    H2 7687   1.641   0.379   1.811  1.6972  3.0078 -2.3319
 2420TIP3   OH2 7688   1.215   1.030   2.533 -0.4585  0.3544 -0.1230
 2420TIP3    H1 7689   1.290   1.037   2.592 -1.2594  0.5885  0.8736
 2420TIP3    H2 7690   1.189   0.938   2.539 -1.1439  0.5940  0.6421
 2421TIP3   OH2 7691   1.600   0.007   2.129 -0.9210 -0.9147  0.3351
 2421TIP3    H1 7692   1.632   0.036   2.044  0.2955  1.2202  1.4757
 2421TIP3    H2 7693   1.673  -0.042   2.168 -1.0481 -0.8607  0.6485
 2422TIP3   OH2 7694   2.773   5.860   3.704 -0.1213  0.4247 -0.4418
 2422TIP3    H1 7695   2.756   5.923   3.635 -1.3269  0.6659  0.0608
 2422TIP3    H2 7696   2.727   5.894   3.781 -1.1133 -1.2421 -0.2620
 2423TIP3   OH2 7697   5.675   0.010   2.030  0.2260 -0.1848  0.4510
 2423TIP3    H1 7698   5.756   0.059   2.041  0.1157 -0.1870  1.2570
 2423TIP3    H2 7699   5.669  -0.004   1.935 -0.1654  2.0533  0.1358
 2424TIP3   OH2 7700   0.969   3.237   4.888 -0.1946 -0.0543  0.2111
 2424TIP3    H1 7701   0.996   3.256   4.978  1.0043 -0.4555 -0.0590
 2424TIP3    H2 7702   0.884   3.280   4.879 -0.6502 -0.5910  1.7518
 2425TIP3   OH2 7703   0.346   2.404   5.434 -0.1056  0.3171 -0.2359
 2425TIP3    H1 7704   0.317   2.407   5.525 -1.1974 -2.5595 -0.4390
 2425TIP3    H2 7705   0.408   2.331   5.430  1.0763  1.3500 -1.5069
 2426TIP3   OH2 7706   0.139   1.768   2.637  0.2478 -0.0031 -0.3036
 2426TIP3    H1 7707   0.092   1.850   2.623  0.2659  0.2712  1.1313
 2426TIP3    H2 7708   0.223   1.795   2.674  0.5608 -0.6179 -0.5684
 2427TIP3   OH2 7709   4.905   2.575   5.013  0.4890 -0.0532 -0.1366
 2427TIP3    H1 7710   4.870   2.491   5.043  0.3279 -0.3285 -1.0750
 2427TIP3    H2 7711   4.982   2.551   4.961  0.0412  0.3349 -0.9897
 2428TIP3   OH2 7712   1.464   0.984   2.649  0.3401 -0.1171  0.2128
 2428TIP3    H1 7713   1.503   0.988   2.562 -0.1367  1.3550  0.0583
 2428TIP3    H2 7714   1.509   0.911   2.692  0.6350 -0.7953 -1.2256
 2429TIP3   OH2 7715   2.246   1.240   3.049  0.5324 -0.2131 -0.3370
 2429TIP3    H1 7716   2.271   1.304   3.116 -1.8712 -0.6315  1.0412
 2429TIP3    H2 7717   2.304   1.165   3.065  1.1137  0.3459  0.1905
 2430TIP3   OH2 7718   4.777   1.085   4.549  0.0175  0.0270 -0.1983
 2430TIP3    H1 7719   4.713   1.137   4.597  2.0291  1.3220  1.1476
 2430TIP3    H2 7720   4.808   1.020   4.612 -1.0062 -1.5533 -1.2772
 2431TIP3   OH2 7721   2.714   0.409   3.307  0.1815 -0.3629 -0.3175
 2431TIP3    H1 7722   2.797   0.419   3.354 -0.4097 -1.7046  1.0632
 2431TIP3    H2 7723   2.656   0.366   3.371 -1.4316  0.1611 -1.4140
 2432TIP3   OH2 7724   1.631   0.800   2.749  1.1155  0.7975 -0.9752
 2432TIP3    H1 7725   1.678   0.837   2.823  0.6712  2.1311 -1.3470
 2432TIP3    H2 7726   1.686   0.728   2.719  1.3483  0.3164  0.5671
 2433TIP3   OH2 7727   1.908   1.444   2.136  0.1100  0.4004  0.3453
 2433TIP3    H1 7728   1.862   1.429   2.054  0.2233 -1.5099  0.6211
 2433TIP3    H2 7729   1.993   1.403   2.125  1.0940  2.3727  0.4918
 2434TIP3   OH2 7730   3.188   2.163   5.213  0.5816 -0.2933  0.2532
 2434TIP3    H1 7731   3.120   2.115   5.261 -0.6852  0.6903 -0.4979
 2434TIP3    H2 7732   3.260   2.100   5.204 -0.6326 -1.7118  0.1629
 2435TIP3   OH2 7733   5.992   1.155   1.409  0.2540  0.5708  0.5364
 2435TIP3    H1 7734   5.934   1.089   1.372  0.1773  0.1017  1.4609
 2435TIP3    H2 7735   6.078   1.112   1.413  0.4685  0.9495  0.0075
 2436TIP3   OH2 7736   1.053   5.847   2.975  0.3125 -0.9003 -0.2610
 2436TIP3    H1 7737   0.999   5.926   2.968 -3.5017 -3.1214  2.2113
 2436TIP3    H2 7738   1.122   5.871   3.037 -2.8383 -0.4125  3.2541
 2437TIP3   OH2 7739   0.031   3.585   3.949 -0.1931 -0.1044  0.4331
 2437TIP3    H1 7740  -0.023   3.664   3.945  2.5288  1.7748 -0.8232
 2437TIP3    H2 7741   0.060   3.580   4.040  0.1328  0.7066  0.3739
 2438TIP3   OH2 7742   0.854   0.783   4.041  0.2062  0.7311  0.0652
 2438TIP3    H1 7743   0.834   0.816   4.129 -1.3454  1.3299 -0.4809
 2438TIP3    H2 7744   0.919   0.845   4.007 -0.8807  1.8521 -0.0360
 2439TIP3   OH2 7745   2.727   5.078   1.960 -0.4719 -0.3481  0.1566
 2439TIP3    H1 7746   2.687   5.042   1.881  0.9371 -3.4890  0.8203
 2439TIP3    H2 7747   2.822   5.071   1.944 -0.1771 -1.1188  2.1498
 2440TIP3   OH2 7748   2.363   5.171   2.396 -0.0039 -0.2869 -0.1422
 2440TIP3    H1 7749   2.387   5.231   2.325 -1.7284  0.2270 -0.3225
 2440TIP3    H2 7750   2.267   5.173   2.397 -0.1135 -3.3390 -0.3974
 2441TIP3   OH2 7751   3.996   0.910   4.361 -0.0021 -0.2106 -0.0135
 2441TIP3    H1 7752   3.927   0.930   4.425 -0.2212  0.1022 -0.3470
 2441TIP3    H2 7753   3.949   0.892   4.280  0.3781  1.5989 -0.6576
 2442TIP3   OH2 7754   1.023   0.586   1.698  0.2908 -0.1081 -0.4185
 2442TIP3    H1 7755   1.023   0.658   1.635  0.1489  1.4683  1.3429
 2442TIP3    H2 7756   0.931   0.564   1.710 -0.0135  2.3487  2.2570
 2443TIP3   OH2 7757   3.713   0.678   0.431  0.2240  0.1672 -0.4152
 2443TIP3    H1 7758   3.756   0.674   0.346  0.7750  2.6578 -0.2950
 2443TIP3    H2 7759   3.625   0.644   0.415  0.4663  0.1965 -1.8674
 2444TIP3   OH2 7760   1.560   4.486   5.976 -0.0186  0.1948 -0.4152
 2444TIP3    H1 7761   1.521   4.415   5.926 -0.3014 -0.4528  0.7029
 2444TIP3    H2 7762   1.647   4.498   5.938 -0.0189 -0.6680 -0.6862
 2445TIP3   OH2 7763   0.481   6.079   2.378  0.1696 -0.1736  0.1823
 2445TIP3    H1 7764   0.403   6.127   2.350  2.2670  0.3346 -5.3073
 2445TIP3    H2 7765   0.448   5.992   2.403 -2.2240  0.1834 -1.5807
 2446TIP3   OH2 7766   5.362   0.513   1.867 -0.2187  0.2876  0.3235
 2446TIP3    H1 7767   5.416   0.509   1.788 -1.4612 -4.9688 -0.3975
 2446TIP3    H2 7768   5.416   0.475   1.936 -1.0677 -0.0757  0.8030
 2447TIP3   OH2 7769   6.082   3.905   2.013 -0.6696  0.8199 -0.2581
 2447TIP3    H1 7770   6.028   3.852   2.072  0.5391  1.2214  1.2431
 2447TIP3    H2 7771   6.157   3.850   1.992  0.6822  1.9174  1.4546
 2448TIP3   OH2 7772   4.348   5.918   0.346 -0.3572 -0.1828 -0.3625
 2448TIP3    H1 7773   4.371   5.848   0.407  0.7467  2.0097  1.8090
 2448TIP3    H2 7774   4.276   5.964   0.389  1.2034  2.0987 -0.1153
 2449TIP3   OH2 7775   0.303   2.387   1.325  0.2211 -0.0349 -0.4617
 2449TIP3    H1 7776   0.274   2.343   1.405 -1.4204  0.1270 -0.9530
 2449TIP3    H2 7777   0.360   2.323   1.282  0.1133 -0.5961  0.2253
 2450TIP3   OH2 7778   4.345   1.856   1.964  0.0755 -0.5828 -0.1413
 2450TIP3    H1 7779   4.328   1.950   1.972 -0.4101 -0.7899  1.5547
 2450TIP3    H2 7780   4.422   1.850   1.908  0.6926  0.8789  0.5200
 2451TIP3   OH2 7781   6.064   4.798   3.379  0.3533 -0.1527 -0.1454
 2451TIP3    H1 7782   6.101   4.730   3.435 -1.7705 -0.6068  0.7751
 2451TIP3    H2 7783   6.075   4.765   3.290 -1.4096 -2.1596  0.3358
 2452TIP3   OH2 7784   0.692   5.482   4.503 -0.0591  0.3513 -0.0836
 2452TIP3    H1 7785   0.607   5.487   4.547  1.0385 -0.4407  2.1762
 2452TIP3    H2 7786   0.731   5.568   4.516  0.3759  0.0343  0.7503
 2453TIP3   OH2 7787   1.976   5.800   4.817  0.1456  0.3750  0.3403
 2453TIP3    H1 7788   1.923   5.770   4.891  1.4206  0.3098  1.2382
 2453TIP3    H2 7789   1.953   5.892   4.808 -1.3882 -0.0552 -0.3776
 2454TIP3   OH2 7790   2.351   4.429   3.978  0.3341 -0.0802 -0.3117
 2454TIP3    H1 7791   2.269   4.405   4.021 -0.0552  0.9600 -0.4752
 2454TIP3    H2 7792   2.410   4.357   3.998 -1.6873 -2.7128 -3.2455
 2455TIP3   OH2 7793   2.926   4.979   4.176 -0.1646  0.1231  0.3787
 2455TIP3    H1 7794   2.989   4.999   4.245  0.6830  0.0171 -0.3622
 2455TIP3    H2 7795   2.974   4.923   4.115 -0.8555  0.3519 -0.3850
 2456TIP3   OH2 7796   3.094   2.084   1.695  0.1206  0.4227 -0.0222
 2456TIP3    H1 7797   3.165   2.115   1.639  0.0947  0.3355 -0.1032
 2456TIP3    H2 7798   3.026   2.150   1.686  0.2021  0.5224  0.0788
 2457TIP3   OH2 7799   1.159   0.844   3.478  0.0427 -0.3040  0.4574
 2457TIP3    H1 7800   1.213   0.767   3.499 -0.1472 -0.7289 -0.5819
 2457TIP3    H2 7801   1.132   0.830   3.387 -0.0504  0.9606  0.2840
 2458TIP3   OH2 7802   3.276   0.922   3.201 -0.4047  0.0144 -0.1612
 2458TIP3    H1 7803   3.271   0.849   3.139  1.2885  0.1179 -0.4499
 2458TIP3    H2 7804   3.188   0.958   3.203 -0.5747 -0.2230 -2.2383
 2459TIP3   OH2 7805   0.472   2.225   3.897 -0.1480 -0.0634  0.2549
 2459TIP3    H1 7806   0.472   2.315   3.865 -1.0231 -0.1390  0.0256
 2459TIP3    H2 7807   0.524   2.227   3.977 -1.1301  0.8846  0.8855
 2460TIP3   OH2 7808   3.357   5.724   3.737  0.3068  0.2429  0.4405
 2460TIP3    H1 7809   3.285   5.742   3.676 -0.2403 -3.1208 -0.0386
 2460TIP3    H2 7810   3.316   5.675   3.808  2.1378 -2.3190 -0.1678
 2461TIP3   OH2 7811   3.260   5.275   3.483  0.7152  0.0869 -0.7708
 2461TIP3    H1 7812   3.199   5.201   3.484  1.5670 -0.6229 -0.7738
 2461TIP3    H2 7813   3.315   5.262   3.561  1.1477  0.4774 -1.0090
 2462TIP3   OH2 7814   1.362   2.164   0.807 -0.0018  0.1900 -0.2792
 2462TIP3    H1 7815   1.392   2.141   0.719  0.0957 -0.3690 -0.1027
 2462TIP3    H2 7816   1.437   2.206   0.848  0.3818 -0.7622 -0.0068
 2463TIP3   OH2 7817   3.036   5.552   4.185  0.0307 -0.5511  0.2537
 2463TIP3    H1 7818   3.062   5.606   4.259  2.4610  1.0920 -1.7273
 2463TIP3    H2 7819   3.077   5.467   4.201 -0.6320 -0.6406  1.4885
 2464TIP3   OH2 7820   3.678   1.700   2.444 -0.1176 -0.3730 -0.1515
 2464TIP3    H1 7821   3.585   1.724   2.445  0.0582  0.4931 -2.2434
 2464TIP3    H2 7822   3.724   1.784   2.437  0.8167 -0.8466  0.2566
 2465TIP3   OH2 7823   2.807   5.732   2.750  0.0369 -0.5261 -0.2042
 2465TIP3    H1 7824   2.866   5.792   2.796 -1.5982  1.2612 -0.3847
 2465TIP3    H2 7825   2.777   5.782   2.675 -0.1142 -2.1645 -1.2467
 2466TIP3   OH2 7826   3.734   0.401   2.681 -0.2681 -0.2023  0.1316
 2466TIP3    H1 7827   3.712   0.319   2.639 -1.1735  0.2528 -0.2778
 2466TIP3    H2 7828   3.653   0.430   2.723  0.3153 -0.0584  1.1962
 2467TIP3   OH2 7829   1.646   0.460   2.358  0.0801 -0.3900  0.1535
 2467TIP3    H1 7830   1.617   0.421   2.441 -2.5373 -1.0311 -1.0086
 2467TIP3    H2 7831   1.615   0.551   2.362  0.3128 -0.3072  0.0652
 2468TIP3   OH2 7832   4.116   0.425   3.744 -0.5815 -0.3491  0.3416
 2468TIP3    H1 7833   4.125   0.491   3.676 -1.0891  0.1563  0.7588
 2468TIP3    H2 7834   4.034   0.380   3.722 -0.2193 -0.8719  0.0374
 2469TIP3   OH2 7835   4.771   5.475   3.662  0.0514  0.5558  0.4270
 2469TIP3    H1 7836   4.848   5.499   3.611  1.0535 -0.1604  1.5988
 2469TIP3    H2 7837   4.706   5.542   3.640  1.1160  1.3656 -0.2816
 2470TIP3   OH2 7838   5.838   3.300   3.377  0.2289  0.6003  0.0246
 2470TIP3    H1 7839   5.927   3.303   3.411  1.7380  1.7376 -3.8119
 2470TIP3    H2 7840   5.839   3.228   3.314 -1.6532  0.5080  0.0754
 2471TIP3   OH2 7841   3.406   2.474   1.863  0.1748 -0.0842  0.3653
 2471TIP3    H1 7842   3.440   2.392   1.899 -1.5395 -1.3928 -0.8746
 2471TIP3    H2 7843   3.439   2.477   1.774 -1.6382 -0.6149 -0.3548
 2472TIP3   OH2 7844   3.698   1.239   2.111 -0.1744 -0.1935  0.2389
 2472TIP3    H1 7845   3.713   1.176   2.182  2.9154  0.5516  0.2966
 2472TIP3    H2 7846   3.744   1.318   2.139  0.5590  0.3209 -2.3139
 2473TIP3   OH2 7847   1.797   2.904   0.402  0.1758  0.4558 -0.5833
 2473TIP3    H1 7848   1.803   2.937   0.492  1.4258 -0.2264 -0.3935
 2473TIP3    H2 7849   1.823   2.812   0.409  0.4188  0.4328 -1.6628
 2474TIP3   OH2 7850   3.263   0.824   3.875  0.0724 -0.2700  0.6507
 2474TIP3    H1 7851   3.178   0.848   3.912 -0.4649 -2.0770  0.6016
 2474TIP3    H2 7852   3.271   0.730   3.892  0.6319 -0.7807 -2.1757
 2475TIP3   OH2 7853   5.380   5.350   5.412 -0.1706 -0.0305  0.3032
 2475TIP3    H1 7854   5.472   5.372   5.400 -0.3920  1.3156  0.8621
 2475TIP3    H2 7855   5.338   5.435   5.431 -1.1298 -0.9140  2.2767
 2476TIP3   OH2 7856   2.724   0.065   2.891 -0.1364 -0.8606  0.6747
 2476TIP3    H1 7857   2.669   0.108   2.826  0.7465 -0.2022  0.3707
 2476TIP3    H2 7858   2.744  -0.020   2.852  0.3252 -0.4994  0.1262
 2477TIP3   OH2 7859   0.571   2.628   4.780  0.1591 -0.0327  0.1659
 2477TIP3    H1 7860   0.663   2.635   4.804  1.0637 -1.0717 -2.6785
 2477TIP3    H2 7861   0.530   2.582   4.853  2.1944 -0.8329  0.8346
 2478TIP3   OH2 7862   3.677   4.956   1.177  0.0611 -0.7344  0.5330
 2478TIP3    H1 7863   3.755   4.912   1.211 -0.0911 -0.6857  0.9479
 2478TIP3    H2 7864   3.690   5.048   1.202  0.7232 -0.4014 -0.9425
 2479TIP3   OH2 7865   3.158   5.859   1.152  0.4994  0.3793  0.2505
 2479TIP3    H1 7866   3.224   5.789   1.152 -1.9393 -2.0334  0.3864
 2479TIP3    H2 7867   3.150   5.885   1.244 -0.3454 -0.9419  0.5640
 2480TIP3   OH2 7868   4.037   1.177   3.561  0.2158  0.1245  0.6413
 2480TIP3    H1 7869   3.976   1.104   3.553  1.3841 -0.7396 -0.7030
 2480TIP3    H2 7870   4.046   1.211   3.472  1.7116  0.1913  0.7909
 2481TIP3   OH2 7871   1.681   2.963   1.314 -0.4752  0.2892  0.1728
 2481TIP3    H1 7872   1.647   2.983   1.401  0.7967  2.2959  0.2334
 2481TIP3    H2 7873   1.607   2.923   1.268 -0.7566 -2.1786  2.6071
 2482TIP3   OH2 7874   3.086   1.833   3.214 -0.0949  0.0402 -0.1913
 2482TIP3    H1 7875   3.025   1.816   3.142  0.2787 -0.6708 -0.3579
 2482TIP3    H2 7876   3.143   1.902   3.181 -0.3313  0.1652 -0.3354
 2483TIP3   OH2 7877   0.425   1.360   2.853 -0.2209  0.0761 -0.1802
 2483TIP3    H1 7878   0.465   1.296   2.794 -1.5384 -1.0643  0.1421
 2483TIP3    H2 7879   0.398   1.309   2.929  1.1901  1.4864  1.2986
 2484TIP3   OH2 7880   2.036   1.443   1.450  0.1480  0.1695  0.4308
 2484TIP3    H1 7881   1.988   1.512   1.495  2.6736  1.2376  1.6294
 2484TIP3    H2 7882   1.979   1.416   1.378 -2.0001  1.6619  1.5299
 2485TIP3   OH2 7883   3.883   0.618   0.197 -0.0734 -0.2205  0.6839
 2485TIP3    H1 7884   3.970   0.658   0.208 -0.3399  0.0616  1.7680
 2485TIP3    H2 7885   3.900   0.538   0.148  0.4351  1.3341 -1.7467
 2486TIP3   OH2 7886   0.877   3.710   5.126  0.0794 -0.2442  0.6248
 2486TIP3    H1 7887   0.959   3.660   5.124  1.1426  1.2873  2.8647
 2486TIP3    H2 7888   0.819   3.660   5.184  0.3426 -0.0908  1.0294
 2487TIP3   OH2 7889   4.583   1.664   1.336  0.4388  0.5016  0.1430
 2487TIP3    H1 7890   4.591   1.570   1.353 -1.7723 -0.0474 -1.6058
 2487TIP3    H2 7891   4.522   1.696   1.403 -0.2413  0.3231 -0.3854
 2488TIP3   OH2 7892   1.588   1.066   4.140 -0.2622  0.1620  1.0304
 2488TIP3    H1 7893   1.549   0.983   4.168  0.8053 -0.5557  0.4236
 2488TIP3    H2 7894   1.681   1.045   4.126 -0.2416  1.1649 -0.3579
 2489TIP3   OH2 7895   2.115   0.264   4.658 -0.2921  0.0295 -0.7131
 2489TIP3    H1 7896   2.135   0.184   4.707 -0.0365  0.8475  0.5682
 2489TIP3    H2 7897   2.117   0.238   4.566 -0.5191 -1.4960 -0.2973
 2490TIP3   OH2 7898   1.254   2.036   2.652 -0.2213 -0.1447 -0.2946
 2490TIP3    H1 7899   1.325   2.089   2.689 -0.9397  0.2804  0.4644
 2490TIP3    H2 7900   1.213   1.994   2.727 -1.1466  0.0617 -0.6813
 2491TIP3   OH2 7901   2.558   2.177   3.763 -0.0022  0.1289  0.2994
 2491TIP3    H1 7902   2.646   2.214   3.752  0.5498 -1.2388  0.0362
 2491TIP3    H2 7903   2.573   2.084   3.781 -1.3112  0.3214  2.5848
 2492TIP3   OH2 7904   1.870   0.217   4.221 -0.0789  0.1716 -0.0261
 2492TIP3    H1 7905   1.841   0.292   4.170  1.9170  1.4061  0.6182
 2492TIP3    H2 7906   1.962   0.204   4.195 -0.0943 -1.3831  0.6436
 2493TIP3   OH2 7907   2.946   1.301   3.628  0.1161  0.8072 -0.4040
 2493TIP3    H1 7908   2.984   1.244   3.695  1.4732 -0.0713 -1.8663
 2493TIP3    H2 7909   2.856   1.316   3.656  0.9625  1.2705  2.1122
 2494TIP3   OH2 7910   2.696   2.225   0.116  0.0002 -0.1634 -0.6288
 2494TIP3    H1 7911   2.736   2.188   0.037 -0.2436  0.2796 -0.9596
 2494TIP3    H2 7912   2.645   2.153   0.153 -0.9060 -0.0194 -1.5613
 2495TIP3   OH2 7913   3.952   0.883   1.314  0.0353  0.4568 -0.9250
 2495TIP3    H1 7914   3.948   0.974   1.341 -0.6692  0.5174 -1.2331
 2495TIP3    H2 7915   3.897   0.878   1.235 -1.4184 -0.6060  0.1285
 2496TIP3   OH2 7916   2.028   0.625   2.733  0.3936 -0.1701  0.0523
 2496TIP3    H1 7917   2.037   0.716   2.705  0.0545 -0.4225 -0.8759
 2496TIP3    H2 7918   2.108   0.607   2.782  0.9194  0.3189 -0.6232
 2497TIP3   OH2 7919   2.701   2.084   0.598  0.2118  0.0369 -0.3395
 2497TIP3    H1 7920   2.635   2.089   0.529  1.3108 -1.1415 -1.4794
 2497TIP3    H2 7921   2.708   1.991   0.618 -1.7179  0.5162  2.9606
 2498TIP3   OH2 7922   3.014   1.636   1.406 -0.4086 -0.9278 -0.1798
 2498TIP3    H1 7923   3.037   1.639   1.499  0.4434  0.0493 -0.4066
 2498TIP3    H2 7924   3.079   1.578   1.366  1.2291  1.1786 -0.6811
 2499TIP3   OH2 7925   2.170   2.219   3.071  0.0893 -0.4243 -0.2239
 2499TIP3    H1 7926   2.237   2.203   3.137 -0.2139 -0.6242  0.0383
 2499TIP3    H2 7927   2.113   2.142   3.075 -0.7492  0.2106  0.2783
 2500TIP3   OH2 7928   1.433   2.434   1.715  0.3332  0.7021  0.2672
 2500TIP3    H1 7929   1.423   2.341   1.695  0.2133  0.4930  1.3208
 2500TIP3    H2 7930   1.478   2.470   1.638  0.5639 -0.2562 -0.0501
 2501TIP3   OH2 7931   0.705   5.290   0.873 -0.3135 -1.0602  0.2474
 2501TIP3    H1 7932   0.728   5.241   0.795 -0.2504 -0.8648  0.1429
 2501TIP3    H2 7933   0.658   5.367   0.840  1.1129 -0.1470  0.2890
 2502TIP3   OH2 7934   3.597   1.007   2.677 -0.0015 -0.2879 -0.9155
 2502TIP3    H1 7935   3.676   1.052   2.706  0.2400 -1.0656 -0.3328
 2502TIP3    H2 7936   3.607   0.918   2.711 -0.9994 -0.4670 -1.0806
 2503TIP3   OH2 7937   2.162   1.150   5.120  0.6341 -0.5566 -0.1197
 2503TIP3    H1 7938   2.206   1.065   5.115  0.1471 -0.8641  0.5619
 2503TIP3    H2 7939   2.070   1.127   5.135  0.6260  0.1052  0.8617
 2504TIP3   OH2 7940   2.421   2.602   1.816 -0.2075  0.4422  0.7117
 2504TIP3    H1 7941   2.468   2.563   1.742 -0.6517 -0.6346  0.9863
 2504TIP3    H2 7942   2.452   2.553   1.893 -1.6294 -0.1886  0.9197
 2505TIP3   OH2 7943   1.344   2.425   2.064 -0.9738  0.7166 -0.3470
 2505TIP3    H1 7944   1.295   2.445   1.984 -0.9394  0.5854 -0.4008
 2505TIP3    H2 7945   1.435   2.416   2.035 -0.8043  1.7151 -0.1259
 2506TIP3   OH2 7946   3.424   3.336   0.726  0.0719 -0.0840 -0.3651
 2506TIP3    H1 7947   3.396   3.292   0.806  0.9004  0.8531  0.4487
 2506TIP3    H2 7948   3.396   3.277   0.655  0.1819 -1.3801  0.6476
 2507TIP3   OH2 7949   3.403   1.410   2.525  0.1242  0.0432  0.6314
 2507TIP3    H1 7950   3.412   1.349   2.451 -0.0379  0.2899  0.4110
 2507TIP3    H2 7951   3.427   1.357   2.602 -3.3997 -1.3212  0.8756
 2508TIP3   OH2 7952   3.545   1.895   3.463 -0.6088 -0.2486 -0.1927
 2508TIP3    H1 7953   3.577   1.805   3.453 -2.2381 -1.2482  3.0119
 2508TIP3    H2 7954   3.449   1.887   3.465 -0.8206  1.6956 -0.8412
 2509TIP3   OH2 7955   5.868   0.139   3.752 -0.5226 -0.3326  0.0926
 2509TIP3    H1 7956   5.887   0.219   3.703  0.6571 -1.2049 -0.9048
 2509TIP3    H2 7957   5.847   0.169   3.840  0.8702  0.9960 -0.0167
 2510TIP3   OH2 7958   1.871   4.595   2.429  0.2246  0.1592  0.2125
 2510TIP3    H1 7959   1.844   4.639   2.349  0.9389 -0.9542 -0.6727
 2510TIP3    H2 7960   1.933   4.655   2.471  0.9568  0.1299 -0.8174
 2511TIP3   OH2 7961   1.027   1.748   2.553  0.0931 -0.4699 -0.0761
 2511TIP3    H1 7962   1.015   1.657   2.526  1.5580 -0.4906 -0.6580
 2511TIP3    H2 7963   0.939   1.775   2.582 -1.2373 -0.8533 -3.5401
 2512TIP3   OH2 7964   3.177   1.037   4.213 -0.0749  0.0288 -0.0728
 2512TIP3    H1 7965   3.255   1.079   4.248 -0.5862 -0.0268  1.1611
 2512TIP3    H2 7966   3.210   0.966   4.157  0.7479  0.0018  0.4428
 2513TIP3   OH2 7967   2.671   0.508   2.912 -0.0658 -0.1770  0.1950
 2513TIP3    H1 7968   2.613   0.558   2.855 -0.6669 -0.5809  0.4521
 2513TIP3    H2 7969   2.740   0.570   2.937 -0.1806  0.1963 -0.4034
 2514TIP3   OH2 7970   2.187   5.002   1.510  0.1341 -0.0487  0.0633
 2514TIP3    H1 7971   2.125   4.949   1.561 -0.9826 -0.7731 -2.0091
 2514TIP3    H2 7972   2.259   4.942   1.489  0.6033  0.2556  0.7729
 2515TIP3   OH2 7973   0.529   1.465   3.647 -0.4038  0.2559  0.4939
 2515TIP3    H1 7974   0.463   1.429   3.587  0.3170  0.4294 -0.4174
 2515TIP3    H2 7975   0.479   1.494   3.723 -1.6414  2.2555 -1.0447
 2516TIP3   OH2 7976   3.159   5.686   3.926  0.3388 -0.2792 -0.0448
 2516TIP3    H1 7977   3.154   5.623   3.998  1.0387 -0.8557 -0.4854
 2516TIP3    H2 7978   3.178   5.770   3.967  1.1367 -0.6782  0.4076
 2517TIP3   OH2 7979   3.654   0.154   2.529 -0.0860 -0.1650  0.2836
 2517TIP3    H1 7980   3.695   0.103   2.459 -0.8661 -0.7596  0.2500
 2517TIP3    H2 7981   3.566   0.117   2.536  0.3114 -0.7796  2.2602
 2518TIP3   OH2 7982   0.978   1.838   3.144  0.3197  0.0091 -0.2382
 2518TIP3    H1 7983   0.909   1.833   3.210 -0.9892 -0.2946 -1.5847
 2518TIP3    H2 7984   1.042   1.772   3.171 -0.2521 -0.1948  0.6556
 2519TIP3   OH2 7985   1.898   1.477   2.836 -0.3658  0.1507 -0.5275
 2519TIP3    H1 7986   1.852   1.517   2.762 -0.0683 -0.9685 -1.3311
 2519TIP3    H2 7987   1.867   1.526   2.912 -1.6767  0.4623 -1.2376
 2520TIP3   OH2 7988   3.611   3.021   4.951  0.1875  0.2188  0.1376
 2520TIP3    H1 7989   3.525   2.980   4.962 -0.2623  0.8609 -0.8636
 2520TIP3    H2 7990   3.604   3.071   4.869  0.7578  2.1861  1.2402
 2521TIP3   OH2 7991   4.545   0.033   1.856  0.1708  0.7858  0.0320
 2521TIP3    H1 7992   4.557  -0.021   1.935  0.8950 -0.9723 -1.2609
 2521TIP3    H2 7993   4.454   0.017   1.830  1.0995 -1.7136 -1.7283
 2522TIP3   OH2 7994   0.754   5.920   1.336  0.6785  0.3633  0.0022
 2522TIP3    H1 7995   0.806   5.942   1.259  0.0199 -1.6354 -1.0733
 2522TIP3    H2 7996   0.812   5.867   1.390  0.3087 -0.4967 -0.4248
 2523TIP3   OH2 7997   3.997   5.279   2.500  0.4466 -0.1120  0.0637
 2523TIP3    H1 7998   3.954   5.267   2.416 -0.3910  1.0111  0.3248
 2523TIP3    H2 7999   4.044   5.362   2.493  0.2408  0.0680  0.7597
 2524TIP3   OH2 8000   3.722   1.725   5.017  0.0248  0.1887  0.1376
 2524TIP3    H1 8001   3.708   1.814   4.987 -0.7516 -0.5272 -1.7300
 2524TIP3    H2 8002   3.739   1.675   4.937  1.5002 -1.1589  1.2384
 2525TIP3   OH2 8003   2.354   5.569   1.178 -0.2068 -0.7677  0.3563
 2525TIP3    H1 8004   2.400   5.557   1.095 -2.7842 -0.5354 -1.1657
 2525TIP3    H2 8005   2.288   5.636   1.159 -0.1848  0.0179  2.8761
 2526TIP3   OH2 8006   4.231   0.257   2.800  0.2643 -0.0585  0.4546
 2526TIP3    H1 8007   4.175   0.248   2.722  0.8253  0.2362  0.0147
 2526TIP3    H2 8008   4.170   0.261   2.873 -0.3011  0.5806 -0.0529
 2527TIP3   OH2 8009   1.411   0.046   1.861 -0.3113  0.7214  0.6113
 2527TIP3    H1 8010   1.350   0.073   1.792  0.4895  0.8118 -0.0690
 2527TIP3    H2 8011   1.374   0.084   1.941 -0.9375  1.1051  0.1516
 2528TIP3   OH2 8012   3.224   0.713   0.646 -0.1595 -0.1524  0.0737
 2528TIP3    H1 8013   3.303   0.705   0.593  0.8413  0.7315  1.3869
 2528TIP3    H2 8014   3.182   0.792   0.615 -0.4658 -0.5622 -0.5520
 2529TIP3   OH2 8015   3.025   2.487   2.986  0.3331  0.1470  0.8612
 2529TIP3    H1 8016   3.061   2.483   3.075  1.4924  0.5129  0.4157
 2529TIP3    H2 8017   3.090   2.443   2.932 -0.4626 -0.2410  0.2154
 2530TIP3   OH2 8018   4.182   2.204   5.809  0.3562 -0.4864 -0.2224
 2530TIP3    H1 8019   4.111   2.268   5.819  1.0192  0.3495 -0.7681
 2530TIP3    H2 8020   4.196   2.170   5.897 -2.1805 -2.2649 -0.4629
 2531TIP3   OH2 8021   3.307   0.638   2.723  0.0710  0.0461  0.5345
 2531TIP3    H1 8022   3.247   0.709   2.745 -2.3168 -1.4870 -0.9038
 2531TIP3    H2 8023   3.285   0.614   2.633  1.4954 -1.8724  0.6621
 2532TIP3   OH2 8024   2.063   2.840   4.647 -0.2213 -0.3944 -0.1127
 2532TIP3    H1 8025   2.020   2.920   4.678 -1.0682  0.3551 -3.0478
 2532TIP3    H2 8026   1.992   2.778   4.633  0.3050 -1.2442  0.9626
 2533TIP3   OH2 8027   2.518   1.400   3.912 -0.0149  0.0273  0.0475
 2533TIP3    H1 8028   2.505   1.325   3.969  0.4919  1.2380  1.8196
 2533TIP3    H2 8029   2.456   1.388   3.841  0.5493 -2.4136 -0.0850
 2534TIP3   OH2 8030   2.402   2.617   0.546 -0.1009 -0.3993 -0.0147
 2534TIP3    H1 8031   2.385   2.635   0.454 -1.2972  0.9622  0.4552
 2534TIP3    H2 8032   2.444   2.530   0.546 -0.3708 -0.5500 -1.7979
 2535TIP3   OH2 8033   2.768   0.708   4.470 -0.9289 -0.1151  0.2200
 2535TIP3    H1 8034   2.842   0.765   4.489 -0.9577  0.0385 -0.1321
 2535TIP3    H2 8035   2.700   0.737   4.531 -0.1052 -1.4500  1.7975
 2536TIP3   OH2 8036   4.414   1.338   0.648  0.4507  0.3604 -0.0573
 2536TIP3    H1 8037   4.397   1.352   0.555 -1.9713  1.9134  0.5849
 2536TIP3    H2 8038   4.435   1.245   0.655  0.5354  0.2034 -2.1245
 2537TIP3   OH2 8039   0.599   1.297   4.712  0.0435  0.3444  0.1354
 2537TIP3    H1 8040   0.630   1.382   4.680  0.3345  0.3734  0.4831
 2537TIP3    H2 8041   0.536   1.268   4.647  0.0770  0.7469 -0.0783
 2538TIP3   OH2 8042   2.477   0.818   0.467 -0.0650  0.2802  0.0072
 2538TIP3    H1 8043   2.570   0.811   0.443 -0.1009  1.2927 -0.4450
 2538TIP3    H2 8044   2.430   0.812   0.384 -0.4917 -1.4864  0.3475
 2539TIP3   OH2 8045   3.160   2.056   3.610  0.0081  0.3976  0.7199
 2539TIP3    H1 8046   3.230   2.032   3.671 -0.0307  0.6480  0.8640
 2539TIP3    H2 8047   3.197   2.040   3.523 -0.8652 -2.6017  0.8368
 2540TIP3   OH2 8048   1.852   3.355   3.282  0.1719  0.1304  0.1771
 2540TIP3    H1 8049   1.824   3.444   3.262 -0.6498  0.3850  2.4105
 2540TIP3    H2 8050   1.785   3.300   3.242  0.9365  0.4610 -1.6253
 2541TIP3   OH2 8051   2.075   1.721   3.064  0.1423 -0.5286  0.0527
 2541TIP3    H1 8052   2.100   1.636   3.100  3.5169  0.5780  0.5409
 2541TIP3    H2 8053   2.148   1.745   3.007 -1.4482  1.3745 -1.2483
 2542TIP3   OH2 8054   0.276   0.369   2.979  0.0441  0.0181 -0.4930
 2542TIP3    H1 8055   0.333   0.361   3.056 -1.0765 -3.1275  0.0790
 2542TIP3    H2 8056   0.226   0.450   2.995 -1.5380 -1.5344  3.1283
 2543TIP3   OH2 8057   3.104   1.290   2.211  0.5556 -0.3392  0.2970
 2543TIP3    H1 8058   3.116   1.367   2.266  0.4437  0.0508 -0.2222
 2543TIP3    H2 8059   3.192   1.253   2.201  0.6992  0.0782  0.0247
 2544TIP3   OH2 8060   5.391   6.089   1.521 -0.1848 -0.1047  0.1334
 2544TIP3    H1 8061   5.317   6.064   1.577 -0.4451  3.1695  1.3270
 2544TIP3    H2 8062   5.376   6.041   1.440 -2.7980 -0.7110  0.9271
 2545TIP3   OH2 8063   2.763   0.843   3.834  0.8132 -1.1236  0.1589
 2545TIP3    H1 8064   2.797   0.755   3.816  0.7380 -1.3133  0.9341
 2545TIP3    H2 8065   2.802   0.898   3.767  0.4854 -1.8381 -0.6245
 2546TIP3   OH2 8066   1.588   2.173   1.409 -0.1063  0.3135 -0.0434
 2546TIP3    H1 8067   1.631   2.153   1.492 -0.2444  2.7267  0.6534
 2546TIP3    H2 8068   1.658   2.204   1.352 -0.1630 -0.4281 -0.5225
 2547TIP3   OH2 8069   3.102   0.508   4.659  0.0249 -0.0266 -0.5824
 2547TIP3    H1 8070   3.143   0.425   4.638  0.4220  0.0585 -0.1572
 2547TIP3    H2 8071   3.057   0.493   4.743  0.9476  0.4615  0.0159
 2548TIP3   OH2 8072   2.713   2.005   0.981  0.1129  0.6691 -0.0988
 2548TIP3    H1 8073   2.623   2.013   0.950  0.3841  0.6494 -0.9214
 2548TIP3    H2 8074   2.726   1.911   0.993 -0.7132  0.8444  2.3085
 2549TIP3   OH2 8075   0.876   1.703   1.455  0.2427 -0.4261  0.2933
 2549TIP3    H1 8076   0.782   1.689   1.472 -0.1116  2.4414  0.9662
 2549TIP3    H2 8077   0.879   1.746   1.370  0.9631 -0.3963  0.3307
 2550TIP3   OH2 8078   1.112   0.614   5.628  0.1793  0.9274  0.2101
 2550TIP3    H1 8079   1.084   0.648   5.543 -0.6641  1.4936  0.7096
 2550TIP3    H2 8080   1.045   0.644   5.689  1.7038  2.0169  1.3818
 2551TIP3   OH2 8081   1.941   2.048   3.635  0.1289  0.0654 -0.5938
 2551TIP3    H1 8082   1.922   1.979   3.572  1.4157  0.9153 -1.9305
 2551TIP3    H2 8083   1.930   2.129   3.586 -0.2111  0.7902  0.6452
 2552TIP3   OH2 8084   1.920   1.594   3.912  0.6336 -0.2271  0.2355
 2552TIP3    H1 8085   1.859   1.663   3.884  0.8402  0.0368  0.4303
 2552TIP3    H2 8086   1.870   1.540   3.972 -0.0717 -1.2771 -1.2497
 2553TIP3   OH2 8087   3.665   1.654   3.466  0.5360 -0.1235 -0.1424
 2553TIP3    H1 8088   3.675   1.572   3.514 -1.0190 -1.8477 -2.6494
 2553TIP3    H2 8089   3.741   1.657   3.407 -0.8762 -1.2324 -2.0778
 2554TIP3   OH2 8090   1.665   2.406   5.295  0.2334  0.2715 -0.5564
 2554TIP3    H1 8091   1.727   2.354   5.348 -0.0034  0.0153 -0.5311
 2554TIP3    H2 8092   1.721   2.464   5.244  0.5090 -0.1287 -0.7127
 2555TIP3   OH2 8093   2.494   2.204   2.317 -0.1057  0.0265 -0.6667
 2555TIP3    H1 8094   2.552   2.166   2.251 -0.8099 -0.4243 -1.0408
 2555TIP3    H2 8095   2.482   2.134   2.382  0.1332  0.2739 -0.3552
 2556TIP3   OH2 8096   5.604   1.341   0.508 -0.8391  0.3220 -0.0468
 2556TIP3    H1 8097   5.693   1.328   0.538 -0.0906  2.0474 -1.3924
 2556TIP3    H2 8098   5.572   1.415   0.560 -1.7392 -0.7537  0.9396
 2557TIP3   OH2 8099   1.335   1.392   4.507 -0.0524 -0.4835 -0.2345
 2557TIP3    H1 8100   1.377   1.381   4.592  0.6993 -2.0453 -0.7910
 2557TIP3    H2 8101   1.407   1.412   4.447 -0.7260  1.9813 -0.2938
 2558TIP3   OH2 8102   3.277   1.806   3.439 -0.4623  0.5316 -0.3104
 2558TIP3    H1 8103   3.258   1.713   3.446  1.8939 -0.1524 -2.4652
 2558TIP3    H2 8104   3.236   1.833   3.357  0.1651  1.0473 -0.4571
 2559TIP3   OH2 8105   2.423   0.060   2.159  0.1751  0.0924 -0.2239
 2559TIP3    H1 8106   2.509   0.092   2.130 -1.0209  0.2636 -3.8391
 2559TIP3    H2 8107   2.374   0.139   2.181  0.8148  0.0077  1.6097
 2560TIP3   OH2 8108   1.847   0.761   5.771  0.1382 -0.0920 -0.4866
 2560TIP3    H1 8109   1.917   0.771   5.836 -1.2933  0.7053  0.9813
 2560TIP3    H2 8110   1.766   0.765   5.822 -1.1040  2.3277 -2.5094
 2561TIP3   OH2 8111   2.061   0.070   2.160  0.2561 -0.5766 -0.1085
 2561TIP3    H1 8112   2.062   0.128   2.084  0.2562  0.1766  0.4631
 2561TIP3    H2 8113   2.059  -0.018   2.123 -0.0956 -0.2030 -0.9777
 2562TIP3   OH2 8114   2.728   5.748   0.476 -0.0695  0.1759 -0.1671
 2562TIP3    H1 8115   2.761   5.660   0.458  2.4767  0.8785  0.8871
 2562TIP3    H2 8116   2.693   5.742   0.565  0.2798  0.2740 -0.0226
 2563TIP3   OH2 8117   0.646   1.296   2.529 -0.1523  0.6733 -0.7446
 2563TIP3    H1 8118   0.664   1.312   2.436  1.5840  2.4346 -0.1596
 2563TIP3    H2 8119   0.718   1.341   2.574  0.0930 -1.7977  1.3897
 2564TIP3   OH2 8120   3.456   4.974   2.793  0.1423 -0.5116  0.3516
 2564TIP3    H1 8121   3.428   5.047   2.738 -0.0042 -0.4578  0.4971
 2564TIP3    H2 8122   3.452   5.008   2.882  1.8021 -0.1294  0.2943
 2565TIP3   OH2 8123   2.365   1.281   3.687 -0.0752  0.1983  0.1658
 2565TIP3    H1 8124   2.416   1.222   3.742 -2.7358 -2.3862  0.0038
 2565TIP3    H2 8125   2.418   1.294   3.609  0.8457 -1.4451  0.5126
 2566TIP3   OH2 8126   2.796   5.832   2.404  0.4579 -0.1739  0.0670
 2566TIP3    H1 8127   2.828   5.750   2.367 -0.6301 -0.6422  0.1403
 2566TIP3    H2 8128   2.776   5.886   2.328  2.1221  0.4129  0.0247
 2567TIP3   OH2 8129   4.485   0.534   2.317  0.6633  0.6003 -0.2688
 2567TIP3    H1 8130   4.425   0.472   2.359  0.0182  0.8930 -0.7372
 2567TIP3    H2 8131   4.571   0.493   2.323  0.1137 -0.7294 -1.2975
 2568TIP3   OH2 8132   3.067   5.646   1.898 -0.0546  0.5650  0.7998
 2568TIP3    H1 8133   3.073   5.719   1.837 -1.2310 -0.1688 -0.2269
 2568TIP3    H2 8134   3.100   5.680   1.981  2.5775  1.2852 -0.4885
 2569TIP3   OH2 8135   1.863   1.043   4.104 -0.4118 -0.1266  0.1197
 2569TIP3    H1 8136   1.893   1.117   4.156  1.2491  1.1442 -2.5482
 2569TIP3    H2 8137   1.941   1.010   4.061 -1.4201 -2.3807 -0.0578
 2570TIP3   OH2 8138   5.062   3.624   2.632  0.4462 -0.2751 -0.0989
 2570TIP3    H1 8139   5.062   3.590   2.721 -2.1987 -2.2407 -0.8026
 2570TIP3    H2 8140   5.073   3.547   2.577  0.0087  0.6831 -1.5521
 2571TIP3   OH2 8141   2.433   0.177   4.323 -0.4143 -0.1610  0.1856
 2571TIP3    H1 8142   2.382   0.125   4.261  0.2596 -2.2105  1.2924
 2571TIP3    H2 8143   2.494   0.114   4.363  1.3244  1.7348  0.6385
 2572TIP3   OH2 8144   6.010   1.862   3.930  0.0983  0.2018  0.0181
 2572TIP3    H1 8145   6.053   1.776   3.923  2.0097  1.1185  0.2913
 2572TIP3    H2 8146   5.919   1.845   3.904  0.5350 -1.8392 -0.2770
 2573TIP3   OH2 8147   2.375   0.143   0.120  0.0001  0.1164  0.4329
 2573TIP3    H1 8148   2.302   0.204   0.134  0.5454  0.7872  0.4007
 2573TIP3    H2 8149   2.388   0.100   0.205  0.4378  0.9729  0.8070
 2574TIP3   OH2 8150   2.656   0.310   0.602  0.0763 -0.3721 -0.6804
 2574TIP3    H1 8151   2.728   0.352   0.649 -1.1071  1.3743 -0.4158
 2574TIP3    H2 8152   2.612   0.257   0.668 -1.0621  1.4060  0.0107
 2575TIP3   OH2 8153   0.992   0.040   1.755 -0.1165 -0.2032  0.7281
 2575TIP3    H1 8154   0.925   0.075   1.696  0.3114  2.6856  1.8526
 2575TIP3    H2 8155   0.947   0.027   1.839  0.2067 -0.4225  0.8726
 2576TIP3   OH2 8156   1.614   4.883   3.477 -0.4535  0.6936  0.0801
 2576TIP3    H1 8157   1.549   4.898   3.545 -1.6760 -0.3435 -0.8293
 2576TIP3    H2 8158   1.616   4.788   3.467  1.0750  0.7289 -0.0288
 2577TIP3   OH2 8159   2.954   1.167   5.151 -0.2313  0.5828 -0.3430
 2577TIP3    H1 8160   2.884   1.125   5.101  0.5354  0.5367 -1.3885
 2577TIP3    H2 8161   2.959   1.116   5.232  0.8204 -1.5333 -1.6723
 2578TIP3   OH2 8162   2.621   1.517   3.211  0.2171 -0.5288  0.0618
 2578TIP3    H1 8163   2.630   1.569   3.290 -1.7228  0.1852 -0.1453
 2578TIP3    H2 8164   2.684   1.445   3.221 -0.6655 -0.9869  2.6848
 2579TIP3   OH2 8165   3.653   5.816   1.748 -0.0014 -0.1014  0.1920
 2579TIP3    H1 8166   3.592   5.793   1.818  0.8342 -0.7442  0.7244
 2579TIP3    H2 8167   3.639   5.910   1.733 -0.2375  0.0188  1.1646
 2580TIP3   OH2 8168   3.806   0.991   3.469 -0.2464 -0.2965  0.5156
 2580TIP3    H1 8169   3.883   0.980   3.414 -0.1491  0.7538  0.4284
 2580TIP3    H2 8170   3.764   0.905   3.471 -0.4379 -0.2627 -1.4758
 2581TIP3   OH2 8171   1.104   0.484   2.373  0.2796  0.3376  0.3908
 2581TIP3    H1 8172   1.105   0.389   2.376 -0.3796  0.3088 -0.2152
 2581TIP3    H2 8173   1.180   0.508   2.321  0.3692  0.1453  0.4316
 2582TIP3   OH2 8174   0.632   1.273   3.833 -0.1646 -0.6889 -0.1637
 2582TIP3    H1 8175   0.691   1.346   3.815  0.3515 -0.6106  1.6826
 2582TIP3    H2 8176   0.570   1.273   3.760  0.3325  1.0661 -0.6125
 2583TIP3   OH2 8177   3.286   5.018   3.636  0.6939 -0.1128  0.4939
 2583TIP3    H1 8178   3.275   4.936   3.684 -0.4053 -0.3302 -0.1017
 2583TIP3    H2 8179   3.265   4.995   3.545 -2.2218  1.3640  0.7161
 2584TIP3   OH2 8180   4.081   4.476   3.627 -0.0247  0.2303 -0.7423
 2584TIP3    H1 8181   4.150   4.458   3.564 -0.1239 -0.5268 -0.6425
 2584TIP3    H2 8182   4.004   4.430   3.593  0.1201 -0.8426  0.3086
 2585TIP3   OH2 8183   1.357   3.106   1.054  0.4342 -0.5112 -0.0576
 2585TIP3    H1 8184   1.288   3.073   0.997 -0.2547 -0.4524  0.7285
 2585TIP3    H2 8185   1.391   3.028   1.098 -1.2974 -0.2123  1.9138
 2586TIP3   OH2 8186   3.999   1.533   2.884  0.6671  0.2174 -0.1343
 2586TIP3    H1 8187   4.063   1.466   2.906  0.3547  0.7950  2.6929
 2586TIP3    H2 8188   3.991   1.528   2.789  2.0294 -2.4604 -0.1543
 2587TIP3   OH2 8189   0.439   1.981   3.488 -0.1247  0.1642 -0.2427
 2587TIP3    H1 8190   0.436   1.889   3.517  0.6441 -0.4288 -1.9805
 2587TIP3    H2 8191   0.532   2.000   3.480 -0.2361  1.5987  1.5571
 2588TIP3   OH2 8192   1.953   4.895   0.149 -0.0141  0.2328 -0.6476
 2588TIP3    H1 8193   1.973   4.988   0.146  0.1110  0.1840 -1.5191
 2588TIP3    H2 8194   2.033   4.852   0.120  0.3730 -0.2111  1.0499
 2589TIP3   OH2 8195   1.956   0.413   0.159 -0.0355 -0.3840  0.2099
 2589TIP3    H1 8196   1.909   0.497   0.160 -0.6272 -0.7121  0.2720
 2589TIP3    H2 8197   1.934   0.375   0.074 -1.0897 -1.2103  0.8440
 2590TIP3   OH2 8198   2.100   0.268   1.597 -1.0165  0.2517  0.0941
 2590TIP3    H1 8199   2.088   0.190   1.650 -0.5069 -0.2635 -0.5325
 2590TIP3    H2 8200   2.189   0.260   1.563 -0.9028  1.1809  0.1411
 2591TIP3   OH2 8201   1.562   1.744   5.808  0.1725 -0.0564  0.3464
 2591TIP3    H1 8202   1.510   1.732   5.887 -1.3711  1.1315 -0.4668
 2591TIP3    H2 8203   1.606   1.829   5.822  0.3230 -0.1035  0.1530
 2592TIP3   OH2 8204   3.514   5.560   1.440  0.4474  0.1572  0.5084
 2592TIP3    H1 8205   3.567   5.529   1.367  0.8676  0.9304  0.4761
 2592TIP3    H2 8206   3.536   5.501   1.513  1.0052  0.1844  0.3661
 2593TIP3   OH2 8207   2.070   6.022   1.484  0.1976  0.6874  0.7175
 2593TIP3    H1 8208   2.148   6.019   1.539 -0.1383  0.0628  1.1681
 2593TIP3    H2 8209   2.059   5.932   1.453 -0.3698  0.7621  0.6989
 2594TIP3   OH2 8210   2.440   5.768   3.739  0.5509  0.0998 -0.5023
 2594TIP3    H1 8211   2.501   5.817   3.794  0.9595 -0.4658 -0.4464
 2594TIP3    H2 8212   2.372   5.738   3.799  1.3585 -1.1003 -0.1769
 2595TIP3   OH2 8213   3.911   0.524   4.097  0.3697  0.1356  0.1594
 2595TIP3    H1 8214   3.989   0.578   4.097 -0.0063  0.6765  0.9137
 2595TIP3    H2 8215   3.840   0.583   4.125  0.0682 -0.8863  1.6089
 2596TIP3   OH2 8216   3.130   1.856   4.754  0.0529 -0.2104  0.1214
 2596TIP3    H1 8217   3.173   1.816   4.678  0.4505  1.8071 -0.7573
 2596TIP3    H2 8218   3.194   1.845   4.825 -0.0562 -1.5509  0.0382
 2597TIP3   OH2 8219   2.386   4.044   2.506  0.6592  0.0995 -0.1512
 2597TIP3    H1 8220   2.396   4.059   2.412  0.1041 -0.5445 -0.3155
 2597TIP3    H2 8221   2.456   3.982   2.527 -0.6814 -1.6024 -0.6063
 2598TIP3   OH2 8222   2.993   0.899   3.544 -0.3321  0.0661 -0.4040
 2598TIP3    H1 8223   3.012   0.886   3.451 -0.8718 -1.2815 -0.3274
 2598TIP3    H2 8224   2.976   0.812   3.578  0.3837  0.4843  1.0892
 2599TIP3   OH2 8225   3.295   1.185   3.972 -0.1221  0.3543  0.3435
 2599TIP3    H1 8226   3.253   1.271   3.963  0.1762  0.2047 -3.0315
 2599TIP3    H2 8227   3.386   1.205   3.992 -0.0800  0.8246 -0.2972
 2600TIP3   OH2 8228   3.278   0.181   3.178 -0.9568 -0.6364  0.4735
 2600TIP3    H1 8229   3.253   0.199   3.269  2.9029 -0.5737  1.5934
 2600TIP3    H2 8230   3.294   0.086   3.176 -1.2210 -0.6701 -0.2018
 2601TIP3   OH2 8231   0.044   1.504   3.939 -0.0114  0.4868  0.1110
 2601TIP3    H1 8232   0.064   1.480   4.029 -1.3470 -0.1478  0.2623
 2601TIP3    H2 8233   0.062   1.425   3.889  0.7029  0.8302 -0.1800
 2602TIP3   OH2 8234   3.169   0.653   4.412  0.5633  0.0862 -0.0672
 2602TIP3    H1 8235   3.154   0.595   4.487  1.0959 -1.9864 -1.5234
 2602TIP3    H2 8236   3.245   0.705   4.438 -0.1157  0.3711  1.3950
 2603TIP3   OH2 8237   1.477   0.056   4.101  0.6041  0.4534 -0.2695
 2603TIP3    H1 8238   1.486   0.107   4.181  2.6715 -1.4712  0.7819
 2603TIP3    H2 8239   1.385   0.031   4.098 -0.1139  2.9414 -0.0470
 2604TIP3   OH2 8240   4.187   5.897   3.309 -0.1658  0.0883 -0.4203
 2604TIP3    H1 8241   4.150   5.884   3.396  1.9468 -1.2785  0.3198
 2604TIP3    H2 8242   4.156   5.822   3.258 -1.1435  0.7203 -0.7604
 2605TIP3   OH2 8243   2.820   1.431   1.752  0.0601  0.2367 -0.1686
 2605TIP3    H1 8244   2.788   1.405   1.838 -2.2003  0.8253 -0.8075
 2605TIP3    H2 8245   2.870   1.356   1.722 -3.2286 -1.9740 -0.3987
 2606TIP3   OH2 8246   5.390   1.694   4.300  0.1904 -0.1852  0.3384
 2606TIP3    H1 8247   5.350   1.764   4.249  0.2627 -0.5422 -0.2145
 2606TIP3    H2 8248   5.316   1.641   4.330  0.2343 -0.7161 -0.4932
 2607TIP3   OH2 8249   5.246   1.655   2.826 -0.0210  0.4970  0.0652
 2607TIP3    H1 8250   5.265   1.607   2.906  1.4569  1.4237  0.2870
 2607TIP3    H2 8251   5.290   1.606   2.757 -0.2769  0.3704 -0.0088
 2608TIP3   OH2 8252   2.380   1.670   2.475 -0.4551 -0.1091 -0.0923
 2608TIP3    H1 8253   2.411   1.760   2.481 -2.2432  0.6773 -1.8497
 2608TIP3    H2 8254   2.355   1.647   2.564 -0.0944  1.1820  0.3549
 2609TIP3   OH2 8255   3.426   6.090   3.934  0.4187 -0.1677  0.5450
 2609TIP3    H1 8256   3.340   6.070   3.971 -0.6026  0.4934 -1.4079
 2609TIP3    H2 8257   3.462   6.004   3.910  0.6732 -0.5150  2.1038
 2610TIP3   OH2 8258   2.278   5.006   5.466 -0.2525  0.6027 -0.1896
 2610TIP3    H1 8259   2.232   4.926   5.440 -1.1840  0.1428  2.7045
 2610TIP3    H2 8260   2.210   5.073   5.468 -0.3296  0.4984  1.5410
 2611TIP3   OH2 8261   2.347   5.425   2.220  0.8358  0.4426  0.1470
 2611TIP3    H1 8262   2.397   5.436   2.139  2.5403  0.6368  1.2079
 2611TIP3    H2 8263   2.354   5.509   2.264 -1.4043  0.8533 -0.1949
 2612TIP3   OH2 8264   0.146   4.401   0.845  0.0639  0.1206  0.5614
 2612TIP3    H1 8265   0.113   4.442   0.766 -1.2931 -0.5917  0.7404
 2612TIP3    H2 8266   0.235   4.435   0.855 -0.6545  2.1813  0.1438
 2613TIP3   OH2 8267   4.448   0.476   2.969  0.1460 -0.4245  0.6785
 2613TIP3    H1 8268   4.365   0.523   2.957  0.4187  0.0864  0.8312
 2613TIP3    H2 8269   4.421   0.389   2.998 -0.5057 -1.2612 -2.1825
 2614TIP3   OH2 8270   4.173   0.656   2.093 -0.1792 -0.1787 -0.0297
 2614TIP3    H1 8271   4.150   0.568   2.122  0.1027 -0.7543 -1.5200
 2614TIP3    H2 8272   4.115   0.714   2.144 -1.4076 -1.3022 -0.1176
 2615TIP3   OH2 8273   0.646   1.092   5.353  0.1009  0.6366 -0.9813
 2615TIP3    H1 8274   0.671   1.166   5.408  1.5010 -0.9795  0.6204
 2615TIP3    H2 8275   0.597   1.131   5.281  0.4639  3.0688  0.0443
 2616TIP3   OH2 8276   3.720   0.750   3.332 -0.3085  0.1166 -0.1724
 2616TIP3    H1 8277   3.776   0.754   3.254  0.6455 -0.3783  0.4682
 2616TIP3    H2 8278   3.634   0.728   3.298 -0.2156  1.2802 -1.2243
 2617TIP3   OH2 8279   2.790   6.038   2.193  0.3743  0.1912  0.3440
 2617TIP3    H1 8280   2.734   6.081   2.258 -0.7192 -0.9023  0.1469
 2617TIP3    H2 8281   2.775   6.087   2.113 -0.8214 -0.4908  0.1364
 2618TIP3   OH2 8282   2.402   1.801   1.780 -0.2322  0.6706  0.0073
 2618TIP3    H1 8283   2.436   1.750   1.854  0.7381 -1.8038 -2.0833
 2618TIP3    H2 8284   2.431   1.754   1.702 -4.7146  0.9329 -1.9669
 2619TIP3   OH2 8285   3.256   3.099   3.558 -0.1517  0.5953  0.3873
 2619TIP3    H1 8286   3.253   3.173   3.619  1.3539  2.5654 -1.7769
 2619TIP3    H2 8287   3.190   3.120   3.492 -1.1313 -1.0463  0.8169
 2620TIP3   OH2 8288   1.432   5.521   2.534 -0.1511 -0.0111 -0.0428
 2620TIP3    H1 8289   1.453   5.502   2.625  1.6586  0.2911 -0.3679
 2620TIP3    H2 8290   1.374   5.450   2.507 -0.6826 -0.0996  1.3410
 2621TIP3   OH2 8291   0.667   1.576   0.769  0.1490  0.0837 -0.1569
 2621TIP3    H1 8292   0.631   1.491   0.795  0.2139 -0.4040 -1.5897
 2621TIP3    H2 8293   0.670   1.572   0.673 -0.8118  2.0985 -0.2962
 2622TIP3   OH2 8294   3.209   4.116   1.546 -0.0378 -0.2567  0.0446
 2622TIP3    H1 8295   3.202   4.024   1.573 -0.5632  0.2466  1.6900
 2622TIP3    H2 8296   3.131   4.132   1.493  0.7715 -1.1340 -1.4514
 2623TIP3   OH2 8297   2.753   1.739   2.653  0.0597 -0.7806  0.2770
 2623TIP3    H1 8298   2.812   1.745   2.728  1.9219 -2.0162 -1.0446
 2623TIP3    H2 8299   2.704   1.659   2.667  2.1992 -2.3793 -1.0275
 2624TIP3   OH2 8300   3.304   3.331   4.941 -0.6994  0.2879 -0.0354
 2624TIP3    H1 8301   3.253   3.390   4.996  1.4686  1.3170  0.9202
 2624TIP3    H2 8302   3.384   3.314   4.991  0.0030 -1.1323 -1.5727
 2625TIP3   OH2 8303   3.882   0.248   3.765 -0.3414  0.0799  0.1574
 2625TIP3    H1 8304   3.818   0.204   3.709 -1.5574  2.3207 -0.2654
 2625TIP3    H2 8305   3.829   0.288   3.834  0.7757  0.5888  0.7266
 2626TIP3   OH2 8306   0.906   0.416   2.062 -0.3460  0.0792  0.3277
 2626TIP3    H1 8307   0.855   0.414   1.982 -1.1547  0.0159  0.8342
 2626TIP3    H2 8308   0.957   0.498   2.057  0.0493 -0.2181 -0.5069
 2627TIP3   OH2 8309   0.632   5.177   4.519  0.7766 -0.3148  0.4560
 2627TIP3    H1 8310   0.719   5.164   4.481  1.2374  2.0280  0.6100
 2627TIP3    H2 8311   0.646   5.170   4.613  0.5682 -1.2012  0.4181
 2628TIP3   OH2 8312   3.676   5.519   4.856  0.1919  0.8588  0.2006
 2628TIP3    H1 8313   3.762   5.560   4.870  0.0843  1.6654 -1.3445
 2628TIP3    H2 8314   3.690   5.427   4.877  0.7264  1.4645  2.6582
 2629TIP3   OH2 8315   3.665   1.575   5.247  0.1541  0.1170  0.2923
 2629TIP3    H1 8316   3.662   1.498   5.189 -3.2950  1.1924 -1.0971
 2629TIP3    H2 8317   3.702   1.644   5.193  0.5449  0.1578  0.6117
 2630TIP3   OH2 8318   2.565   4.985   2.875 -0.2470  0.0255  0.0176
 2630TIP3    H1 8319   2.472   4.989   2.851 -0.3619  0.3704  0.5064
 2630TIP3    H2 8320   2.611   5.017   2.797 -0.4766 -1.0409 -0.5679
 2631TIP3   OH2 8321   5.897   4.679   4.662  0.2647 -0.6096  0.0261
 2631TIP3    H1 8322   5.901   4.765   4.704 -1.3145 -1.0634  1.1469
 2631TIP3    H2 8323   5.984   4.641   4.676  1.4458  1.3515 -1.7234
 2632TIP3   OH2 8324   1.966   1.224   1.082 -0.1061  0.6690 -0.1859
 2632TIP3    H1 8325   2.027   1.283   1.039  0.5286  0.0457 -0.1389
 2632TIP3    H2 8326   1.885   1.231   1.030 -0.1339  1.7997 -0.0010
 2633TIP3   OH2 8327   0.340   1.346   4.581  0.4178  0.7037 -0.7181
 2633TIP3    H1 8328   0.289   1.427   4.575 -0.9548 -0.1413 -0.7338
 2633TIP3    H2 8329   0.386   1.340   4.497 -1.1543  0.3893 -1.5875
 2634TIP3   OH2 8330   3.094   1.179   2.787 -0.0328  0.5238 -0.0179
 2634TIP3    H1 8331   3.186   1.153   2.779 -0.0230 -0.0200  1.6460
 2634TIP3    H2 8332   3.051   1.134   2.714  0.5357 -1.6892  0.9539
 2635TIP3   OH2 8333   1.005   5.581   2.893  0.4469 -0.3682  0.2810
 2635TIP3    H1 8334   1.016   5.675   2.905  0.9222 -0.2094 -1.2867
 2635TIP3    H2 8335   1.004   5.545   2.982  0.7441  1.0602  0.8711
 2636TIP3   OH2 8336   2.318   3.944   3.664 -1.1069  0.3491 -0.4718
 2636TIP3    H1 8337   2.336   4.029   3.625 -2.1574 -0.1645 -2.1345
 2636TIP3    H2 8338   2.350   3.951   3.754  3.2209  0.9456 -1.9271
 2637TIP3   OH2 8339   5.825   0.659   2.028 -0.5572  0.2786  0.3356
 2637TIP3    H1 8340   5.831   0.563   2.031  1.1810  0.3049 -1.4939
 2637TIP3    H2 8341   5.850   0.682   1.939 -1.9368  2.3996  0.4672
 2638TIP3   OH2 8342   1.959   2.331   4.157 -0.6505  0.0972  0.0259
 2638TIP3    H1 8343   1.930   2.298   4.072  0.1554  0.0081 -0.2222
 2638TIP3    H2 8344   1.916   2.416   4.166  0.2398  0.6771 -1.0368
 2639TIP3   OH2 8345   2.499   1.595   2.947 -0.4577 -0.4588 -0.0931
 2639TIP3    H1 8346   2.516   1.535   2.875 -0.8849 -0.0725 -0.5218
 2639TIP3    H2 8347   2.542   1.556   3.023  1.7561  0.1541 -1.0042
 2640TIP3   OH2 8348   1.817   0.252   4.721  0.6260  0.4444  0.1838
 2640TIP3    H1 8349   1.862   0.283   4.799 -1.4172  0.3529  1.4424
 2640TIP3    H2 8350   1.803   0.331   4.668  1.2109  0.6477  0.3330
 2641TIP3   OH2 8351   0.984   1.329   3.581 -0.1017  0.1281  0.1709
 2641TIP3    H1 8352   0.998   1.239   3.552  0.2132  0.3175 -0.2576
 2641TIP3    H2 8353   0.958   1.320   3.673  0.9471 -0.3452  0.4347
 2642TIP3   OH2 8354   1.565   5.444   4.501  0.4773  0.2289  0.2563
 2642TIP3    H1 8355   1.657   5.466   4.516  0.1657  0.9568  1.0501
 2642TIP3    H2 8356   1.553   5.360   4.546  0.9365 -0.2445 -0.4759
 2643TIP3   OH2 8357   2.918   1.667   2.307 -0.3167 -0.0745  0.1621
 2643TIP3    H1 8358   2.928   1.762   2.319  0.1111 -0.1724  0.6105
 2643TIP3    H2 8359   3.007   1.633   2.315 -0.5730 -0.5995  0.8027
 2644TIP3   OH2 8360   2.535   1.721   2.203 -0.7498 -0.2348  0.1491
 2644TIP3    H1 8361   2.463   1.726   2.267 -0.6604 -0.0225  0.2356
 2644TIP3    H2 8362   2.535   1.807   2.162  0.9879  0.6035  1.8167
 2645TIP3   OH2 8363   2.517   0.009   1.492  0.5307 -0.1663 -0.4503
 2645TIP3    H1 8364   2.464  -0.043   1.432 -0.7973 -1.3511  1.6980
 2645TIP3    H2 8365   2.606  -0.025   1.481 -0.2271 -2.5425  0.5028
 2646TIP3   OH2 8366   2.662   1.079   3.317  0.0607 -0.1083  0.2402
 2646TIP3    H1 8367   2.706   1.162   3.295 -1.1288  1.0128  1.9803
 2646TIP3    H2 8368   2.707   1.048   3.395  1.1292 -1.6265 -0.9574
 2647TIP3   OH2 8369   2.159   2.254   5.166  0.1068  0.3536 -0.0774
 2647TIP3    H1 8370   2.103   2.200   5.110  1.9260  1.2493 -2.8660
 2647TIP3    H2 8371   2.102   2.327   5.193 -1.0644 -0.5847  0.0362
 2648TIP3   OH2 8372   1.316   1.414   2.512  0.8722  0.2027 -0.3447
 2648TIP3    H1 8373   1.264   1.358   2.454 -0.7373  1.4642 -0.1552
 2648TIP3    H2 8374   1.254   1.444   2.578  1.5755  2.5375 -0.6975
 2649TIP3   OH2 8375   4.089   5.909   5.567  0.4540 -0.6977  0.3016
 2649TIP3    H1 8376   4.045   5.826   5.551  1.7009 -1.6248  1.6156
 2649TIP3    H2 8377   4.182   5.887   5.571  0.9481  1.0389 -1.1531
 2650TIP3   OH2 8378   3.877   5.939   2.931  0.3139  0.6158  0.0573
 2650TIP3    H1 8379   3.847   5.853   2.902  0.2027  0.2110  1.3276
 2650TIP3    H2 8380   3.972   5.933   2.929  0.3169  0.9632 -1.2698
 2651TIP3   OH2 8381   0.833   1.122   2.057  0.2551 -0.4221  0.0174
 2651TIP3    H1 8382   0.777   1.044   2.051 -0.9189  0.3242  0.9315
 2651TIP3    H2 8383   0.828   1.162   1.970  0.7778 -1.2993 -0.4244
 2652TIP3   OH2 8384   2.818   5.679   1.611 -0.1239 -0.7564 -0.5776
 2652TIP3    H1 8385   2.731   5.683   1.651 -1.1833 -1.7328 -2.6956
 2652TIP3    H2 8386   2.862   5.607   1.656 -1.5503 -2.2901 -1.5669
 2653TIP3   OH2 8387   3.846   2.166   3.609  0.3863 -0.3747  0.1182
 2653TIP3    H1 8388   3.887   2.248   3.636 -0.4754  0.1611 -0.1728
 2653TIP3    H2 8389   3.878   2.101   3.671  2.0602 -0.0714 -0.4037
 2654TIP3   OH2 8390   2.098   1.547   1.182 -0.3114 -0.8310  0.0212
 2654TIP3    H1 8391   2.008   1.580   1.179 -0.6042 -1.6627 -0.7069
 2654TIP3    H2 8392   2.124   1.540   1.090  1.5259  2.1085  0.2572
 2655TIP3   OH2 8393   2.179   5.714   2.868 -0.3637 -0.5927 -0.0973
 2655TIP3    H1 8394   2.241   5.779   2.833  0.7153 -2.0430 -0.9451
 2655TIP3    H2 8395   2.119   5.765   2.921  0.7360  1.0551 -0.3836
 2656TIP3   OH2 8396   1.911   0.516   1.684 -0.4045  0.2583  0.1966
 2656TIP3    H1 8397   1.868   0.523   1.599  0.9301  0.6329 -0.4753
 2656TIP3    H2 8398   2.000   0.488   1.663  0.1524  1.0547  1.4171
 2657TIP3   OH2 8399   1.103   1.009   2.010 -0.1512 -0.2165  0.1429
 2657TIP3    H1 8400   1.134   1.046   1.928  1.1816 -2.5475 -0.4559
 2657TIP3    H2 8401   1.012   1.039   2.018 -0.4640 -0.4166 -2.4523
 2658TIP3   OH2 8402   3.056   0.746   2.407  0.4730  0.2691  0.5245
 2658TIP3    H1 8403   3.130   0.764   2.349 -0.8978  1.4421 -0.8634
 2658TIP3    H2 8404   2.979   0.777   2.360 -0.7973  0.1762  2.4653
 2659TIP3   OH2 8405   3.630   0.745   2.709  0.2974  1.0721 -0.2936
 2659TIP3    H1 8406   3.608   0.724   2.618 -0.0436 -1.6454  0.3683
 2659TIP3    H2 8407   3.555   0.713   2.760  1.7529 -0.1251  1.1732
 2660TIP3   OH2 8408   3.486   4.619   3.258  0.5684  0.7027  0.3412
 2660TIP3    H1 8409   3.472   4.662   3.343 -1.0764 -0.6929  0.8096
 2660TIP3    H2 8410   3.491   4.525   3.280  2.5380  0.4987 -0.8406
 2661TIP3   OH2 8411   2.106   4.710   2.589 -0.2938 -0.1497  0.3635
 2661TIP3    H1 8412   2.152   4.727   2.671 -0.7878 -0.3710  0.6904
 2661TIP3    H2 8413   2.140   4.776   2.528 -0.9069  0.8819  1.1332
 2662TIP3   OH2 8414   2.389   2.433   5.801  0.0898  0.1624 -0.3448
 2662TIP3    H1 8415   2.455   2.372   5.768 -0.6286 -1.4580  1.1834
 2662TIP3    H2 8416   2.392   2.425   5.896 -2.0678  0.3101 -0.2195
 2663TIP3   OH2 8417   2.318   2.122   5.350 -0.2086 -0.2303 -0.0431
 2663TIP3    H1 8418   2.371   2.191   5.390  0.0100 -0.4301  0.0088
 2663TIP3    H2 8419   2.258   2.169   5.291  0.1448 -0.0221 -0.2377
 2664TIP3   OH2 8420   4.784   1.590   2.478 -0.1578  0.4365  0.0502
 2664TIP3    H1 8421   4.852   1.557   2.420  0.5216  1.2076  0.3948
 2664TIP3    H2 8422   4.730   1.513   2.499  0.5462 -0.1537 -0.3004
 2665TIP3   OH2 8423   0.040   5.131   4.113  0.7192  0.0347 -0.0765
 2665TIP3    H1 8424   0.053   5.036   4.119 -0.0831 -0.1859 -1.5868
 2665TIP3    H2 8425  -0.043   5.147   4.158 -0.8535 -0.4549 -2.6922
 2666TIP3   OH2 8426   4.303   5.731   2.963  0.2016  0.6060 -0.2205
 2666TIP3    H1 8427   4.343   5.814   2.936  2.0692  0.0950  0.8555
 2666TIP3    H2 8428   4.359   5.701   3.035 -0.2794 -1.7235 -0.8065
 2667TIP3   OH2 8429   4.084   2.416   3.624 -0.0917 -0.8563  0.9448
 2667TIP3    H1 8430   4.113   2.363   3.549  0.3642  0.5592  0.1048
 2667TIP3    H2 8431   4.098   2.359   3.700  1.2196 -1.6241  0.1490
 2668TIP3   OH2 8432   5.596   6.002   2.643  0.1053 -0.2245 -0.0974
 2668TIP3    H1 8433   5.591   5.945   2.566 -0.3640  1.2435 -1.1821
 2668TIP3    H2 8434   5.690   6.011   2.661  0.1841 -1.1996 -0.0162
 2669TIP3   OH2 8435   3.933   0.499   2.504 -0.1376  0.0620  0.2627
 2669TIP3    H1 8436   3.897   0.461   2.424 -0.1066 -1.9925  1.1818
 2669TIP3    H2 8437   3.865   0.481   2.570  0.2117  0.9714  0.8659
 2670TIP3   OH2 8438   2.484   3.743   3.335 -0.0004  0.2164 -0.5698
 2670TIP3    H1 8439   2.473   3.649   3.319 -1.2690  0.3868 -0.7224
 2670TIP3    H2 8440   2.473   3.752   3.430  0.0557  0.2147 -0.5635
 2671TIP3   OH2 8441   2.816   0.727   1.863  0.0405  0.0333 -0.5826
 2671TIP3    H1 8442   2.737   0.715   1.915 -0.1191 -0.0387 -0.8440
 2671TIP3    H2 8443   2.799   0.680   1.781  0.0878  0.5982 -0.9154
 2672TIP3   OH2 8444   5.921   1.957   2.303  0.5614 -0.3536  0.0377
 2672TIP3    H1 8445   5.852   1.929   2.243  2.3061 -1.8496 -1.3061
 2672TIP3    H2 8446   5.978   2.014   2.251  0.8356  0.1762  0.9014
 2673TIP3   OH2 8447   0.145   6.073   0.047 -0.7769 -0.2564 -0.1301
 2673TIP3    H1 8448   0.117   6.024   0.125 -1.4468 -2.4014 -1.6797
 2673TIP3    H2 8449   0.108   6.160   0.060 -1.6603 -0.8471  1.5326
 2674TIP3   OH2 8450   4.809   1.586   3.624  0.3678  0.2160  0.8107
 2674TIP3    H1 8451   4.740   1.523   3.643  1.7032 -0.8647  2.1712
 2674TIP3    H2 8452   4.884   1.533   3.596  0.1571  1.4647 -2.3557
 2675TIP3   OH2 8453   2.549   5.482   3.001 -0.1012 -0.2645  0.0886
 2675TIP3    H1 8454   2.543   5.577   3.005 -0.4772 -0.1220 -2.6262
 2675TIP3    H2 8455   2.458   5.452   2.998  0.0309 -0.5245 -1.7721
 2676TIP3   OH2 8456   0.571   0.816   0.341  0.3874  0.0516 -0.2791
 2676TIP3    H1 8457   0.597   0.724   0.330 -0.2831 -0.0120 -1.2873
 2676TIP3    H2 8458   0.539   0.820   0.431 -0.8594 -1.0188 -0.6551
 2677TIP3   OH2 8459   4.962   0.784   5.271 -0.0297 -0.6077  0.1437
 2677TIP3    H1 8460   4.979   0.719   5.339  0.8111  0.1912  0.7148
 2677TIP3    H2 8461   4.981   0.868   5.313 -0.7160 -0.0250 -0.7057
 2678TIP3   OH2 8462   5.721   4.530   3.238 -0.4096  0.7826  0.5486
 2678TIP3    H1 8463   5.681   4.616   3.245  0.0697  0.8844  2.1911
 2678TIP3    H2 8464   5.652   4.469   3.263 -0.3310  0.7977  0.8095
 2679TIP3   OH2 8465   1.063   0.735   3.238  0.7684  0.5372 -0.0947
 2679TIP3    H1 8466   1.064   0.678   3.161 -0.3748  0.6730 -0.2166
 2679TIP3    H2 8467   0.984   0.710   3.286  1.2670  0.7239  0.8365
 2680TIP3   OH2 8468   3.689   2.128   3.363  0.1140 -0.1172  0.0201
 2680TIP3    H1 8469   3.756   2.143   3.429  0.6424 -0.6374 -0.3876
 2680TIP3    H2 8470   3.638   2.054   3.396  0.0124  0.0019  0.1282
 2681TIP3   OH2 8471   5.177   0.841   2.870  0.3312  0.1324  0.3283
 2681TIP3    H1 8472   5.227   0.784   2.812 -1.2567 -0.9170 -0.0625
 2681TIP3    H2 8473   5.237   0.910   2.895  1.3775 -0.0401 -1.6702
 2682TIP3   OH2 8474   5.193   1.101   3.539 -0.1197  0.1653  0.2037
 2682TIP3    H1 8475   5.273   1.050   3.545  0.1878  0.9053  3.2413
 2682TIP3    H2 8476   5.223   1.192   3.531 -0.6354  0.4198  1.0904
 2683TIP3   OH2 8477   1.098   5.612   0.921 -0.0433 -0.4217  0.2704
 2683TIP3    H1 8478   1.069   5.537   0.972  0.6569  0.3063  1.7943
 2683TIP3    H2 8479   1.027   5.628   0.859 -0.9109 -1.3456  1.0069
 2684TIP3   OH2 8480   1.384   2.937   2.680  0.1174  0.2071 -0.0005
 2684TIP3    H1 8481   1.305   2.916   2.630 -0.6875 -0.0179  1.3250
 2684TIP3    H2 8482   1.435   2.993   2.622 -2.2426  2.5487  0.0523
 2685TIP3   OH2 8483   2.242   1.732   4.317 -0.0524  0.0144  0.5055
 2685TIP3    H1 8484   2.210   1.647   4.286 -1.3128  0.6362  0.0706
 2685TIP3    H2 8485   2.254   1.719   4.411 -2.1057 -0.1055  0.7826
 2686TIP3   OH2 8486   3.953   1.559   1.913  0.0368 -0.2914 -0.7377
 2686TIP3    H1 8487   3.995   1.612   1.980  0.7844  0.1079 -1.5203
 2686TIP3    H2 8488   3.966   1.469   1.942  0.2952 -0.1205 -0.3178
 2687TIP3   OH2 8489   5.464   4.919   1.883  0.3308 -0.5769  0.3588
 2687TIP3    H1 8490   5.438   4.937   1.974  0.3196  0.0465  0.2354
 2687TIP3    H2 8491   5.444   4.826   1.870 -2.2347 -0.0298  0.1520
 2688TIP3   OH2 8492   5.341   4.975   2.516  0.0516 -0.9573  0.4732
 2688TIP3    H1 8493   5.367   4.912   2.449 -1.6075 -0.6033 -0.5472
 2688TIP3    H2 8494   5.395   4.954   2.592  1.0688 -2.1733 -0.5733
 2689TIP3   OH2 8495   5.367   1.031   1.166 -0.4870 -0.8618  0.3291
 2689TIP3    H1 8496   5.421   1.049   1.243 -0.4558  0.1951  0.0620
 2689TIP3    H2 8497   5.429   0.994   1.102 -0.0854  0.2974  0.0422
 2690TIP3   OH2 8498   0.158   1.664   3.748 -0.3265  0.8992  0.2814
 2690TIP3    H1 8499   0.070   1.645   3.780 -1.0413  1.7060 -1.1702
 2690TIP3    H2 8500   0.191   1.733   3.805 -1.7624  2.6489 -0.9613
 2691TIP3   OH2 8501   5.676   0.541   4.105 -0.0210  0.1238 -0.3853
 2691TIP3    H1 8502   5.659   0.617   4.050  1.0143 -0.8223 -2.0639
 2691TIP3    H2 8503   5.663   0.466   4.047 -0.1732 -0.9449  1.0072
 2692TIP3   OH2 8504   5.204   1.204   4.822 -0.1031 -0.2388  0.0891
 2692TIP3    H1 8505   5.287   1.252   4.827 -0.2950 -0.0428  1.5098
 2692TIP3    H2 8506   5.230   1.112   4.815  0.2750  0.0316 -3.0974
 2693TIP3   OH2 8507   4.844   1.199   3.689  0.2239 -0.3275  0.0228
 2693TIP3    H1 8508   4.816   1.173   3.601  1.0027  0.8409 -0.5840
 2693TIP3    H2 8509   4.906   1.131   3.715  0.9432 -0.0257 -0.8508
 2694TIP3   OH2 8510   4.547   4.759   2.127  0.3304  0.7723 -0.3505
 2694TIP3    H1 8511   4.626   4.770   2.181  1.9288  1.0526 -2.6600
 2694TIP3    H2 8512   4.478   4.737   2.189  2.7029 -1.7089  1.5238
 2695TIP3   OH2 8513   0.842   5.859   0.654 -0.0531  0.4947 -0.3135
 2695TIP3    H1 8514   0.813   5.907   0.732 -0.5477  0.0641 -0.2232
 2695TIP3    H2 8515   0.862   5.926   0.590  0.7177  0.8669  0.3157
 2696TIP3   OH2 8516   5.291   0.667   2.684  0.2543  0.1223 -0.4650
 2696TIP3    H1 8517   5.383   0.669   2.711 -0.0922  1.9565  0.7149
 2696TIP3    H2 8518   5.266   0.575   2.689  2.5402 -0.6558 -2.6633
 2697TIP3   OH2 8519   4.159   5.956   4.909  0.5063 -0.4518 -0.4227
 2697TIP3    H1 8520   4.145   6.026   4.973  1.5061 -0.9763  0.3786
 2697TIP3    H2 8521   4.080   5.903   4.913 -0.6948  1.1927 -1.7590
 2698TIP3   OH2 8522   4.866   1.516   1.524 -0.0483 -0.1256  0.9823
 2698TIP3    H1 8523   4.779   1.475   1.527 -0.2755  0.0265 -1.6034
 2698TIP3    H2 8524   4.903   1.485   1.441  1.7652  0.9942  1.3595
 2699TIP3   OH2 8525   3.726   0.506   3.477 -0.0757  0.0323 -0.1285
 2699TIP3    H1 8526   3.784   0.464   3.414 -0.2626  0.5581 -0.6539
 2699TIP3    H2 8527   3.727   0.599   3.452 -1.1483  0.0395 -0.1539
 2700TIP3   OH2 8528   3.990   1.484   2.602  0.0957  0.2846  0.7003
 2700TIP3    H1 8529   3.897   1.485   2.578  0.0732 -0.6101  0.7207
 2700TIP3    H2 8530   4.037   1.480   2.519  0.0564 -1.2390  0.7316
 2701TIP3   OH2 8531   0.577   5.987   1.756  0.4080  0.1023  0.1556
 2701TIP3    H1 8532   0.650   5.946   1.802  1.0394 -0.8795 -1.6784
 2701TIP3    H2 8533   0.500   5.961   1.806  1.2466  0.6806  1.7834
 2702TIP3   OH2 8534   4.537   1.209   2.807  0.3769 -0.3109  0.3311
 2702TIP3    H1 8535   4.522   1.202   2.713  0.3568  0.8673  0.2442
 2702TIP3    H2 8536   4.581   1.127   2.831  1.5150 -0.0630 -0.9203
 2703TIP3   OH2 8537   4.948   1.346   2.759 -0.0895  0.3616  0.0198
 2703TIP3    H1 8538   5.011   1.343   2.687  0.4141  1.5418  0.4046
 2703TIP3    H2 8539   4.929   1.254   2.778  1.5612 -0.0133 -0.0797
 2704TIP3   OH2 8540   2.079   5.803   5.451 -0.1698 -0.6943 -0.1067
 2704TIP3    H1 8541   2.004   5.862   5.445  0.7619  0.4207 -1.0587
 2704TIP3    H2 8542   2.040   5.716   5.453 -1.4752 -0.1496 -0.9583
 2705TIP3   OH2 8543   3.663   1.303   1.803  0.0152 -0.3701  0.2720
 2705TIP3    H1 8544   3.666   1.282   1.896 -1.7390 -1.4319  0.1156
 2705TIP3    H2 8545   3.754   1.315   1.778  0.3808  2.2773  2.6229
 2706TIP3   OH2 8546   1.337   0.555   2.250 -0.2955 -0.0837 -0.6269
 2706TIP3    H1 8547   1.408   0.618   2.250 -0.3290 -0.0396  0.5790
 2706TIP3    H2 8548   1.370   0.481   2.198  0.6997 -0.1337  0.0634
 2707TIP3   OH2 8549   0.729   4.708   1.679  0.4466  0.6023 -0.1942
 2707TIP3    H1 8550   0.658   4.761   1.716  1.6416  0.8488  1.8313
 2707TIP3    H2 8551   0.685   4.640   1.629 -1.2205  0.7642  1.0235
 2708TIP3   OH2 8552   4.121   2.214   3.441  0.1432 -0.2047  0.5063
 2708TIP3    H1 8553   4.103   2.211   3.347  0.5421 -1.3112  0.4637
 2708TIP3    H2 8554   4.215   2.200   3.448  0.0608 -0.4553  1.0955
 2709TIP3   OH2 8555   5.824   0.909   2.893 -0.2141 -0.2539  0.4333
 2709TIP3    H1 8556   5.827   0.820   2.855 -1.1388 -0.3377  0.5377
 2709TIP3    H2 8557   5.823   0.967   2.817  0.1376 -0.3456  0.3595
 2710TIP3   OH2 8558   5.271   0.172   3.455  0.5977  0.1735  0.2888
 2710TIP3    H1 8559   5.306   0.254   3.419 -2.1853  0.7294 -1.3183
 2710TIP3    H2 8560   5.284   0.180   3.549  4.0221  0.6427 -0.1555
 2711TIP3   OH2 8561   3.091   1.207   3.424  0.2244  0.1504  0.0399
 2711TIP3    H1 8562   3.184   1.202   3.448 -0.0759 -0.3772  1.1030
 2711TIP3    H2 8563   3.048   1.246   3.500 -0.9033 -2.6203  0.8934
 2712TIP3   OH2 8564   2.589   1.875   4.584  0.4345 -0.1129  0.0615
 2712TIP3    H1 8565   2.620   1.787   4.605  1.2884  0.0171 -0.6203
 2712TIP3    H2 8566   2.669   1.926   4.569 -0.0566  0.7212  0.2205
 2713TIP3   OH2 8567   6.038   5.211   2.007 -0.5540 -0.0353  0.1779
 2713TIP3    H1 8568   5.970   5.219   1.940 -1.8910 -2.0599  1.2606
 2713TIP3    H2 8569   6.104   5.155   1.967 -0.4191  0.3696 -0.1708
 2714TIP3   OH2 8570   4.106   1.475   0.513  0.5432 -0.1312 -0.1216
 2714TIP3    H1 8571   4.174   1.416   0.481  0.9466  0.3626 -0.1767
 2714TIP3    H2 8572   4.090   1.445   0.603  0.2547 -0.7592 -0.3777
 2715TIP3   OH2 8573   3.845   1.781   2.143 -0.2094  0.1108  0.0013
 2715TIP3    H1 8574   3.940   1.775   2.134 -0.0631  0.8302  0.9601
 2715TIP3    H2 8575   3.830   1.860   2.197 -1.3134 -0.3149  0.3467
 2716TIP3   OH2 8576   5.216   1.615   3.648  0.3088 -0.2147 -0.4173
 2716TIP3    H1 8577   5.305   1.586   3.669 -0.1043 -1.2763 -0.0668
 2716TIP3    H2 8578   5.164   1.534   3.652 -0.7140  0.4491 -0.3373
 2717TIP3   OH2 8579   3.738   0.139   3.406 -0.0456  0.2996  1.3868
 2717TIP3    H1 8580   3.693   0.112   3.326  1.6412  0.4548  0.3489
 2717TIP3    H2 8581   3.795   0.210   3.378  1.6112 -0.5776  2.4256
 2718TIP3   OH2 8582   0.672   0.468   2.750 -0.2890 -0.4448 -0.2462
 2718TIP3    H1 8583   0.702   0.478   2.660 -1.0781  0.4506 -0.4200
 2718TIP3    H2 8584   0.577   0.459   2.744 -0.1759 -2.2292  0.3749
 2719TIP3   OH2 8585   4.656   0.305   2.078 -0.3770 -0.1418  0.0579
 2719TIP3    H1 8586   4.630   0.249   2.005  1.4865 -1.4334  0.3561
 2719TIP3    H2 8587   4.721   0.365   2.040  0.2883 -0.5464  0.5597
 2720TIP3   OH2 8588   5.918   0.163   2.424 -0.7766 -0.0489  0.1450
 2720TIP3    H1 8589   5.895   0.188   2.514  0.6431 -0.4730  0.6266
 2720TIP3    H2 8590   5.914   0.068   2.424 -1.6615 -0.0243 -0.4953
 2721TIP3   OH2 8591   3.625   4.854   2.394 -1.0138 -0.2280 -0.3548
 2721TIP3    H1 8592   3.690   4.825   2.458 -0.5528  0.6800 -0.4073
 2721TIP3    H2 8593   3.591   4.772   2.356  2.0030 -0.6733 -2.2397
 2722TIP3   OH2 8594   0.232   0.683   3.429 -0.3786 -0.6918  0.1228
 2722TIP3    H1 8595   0.250   0.590   3.416 -1.8479 -1.0581  0.6268
 2722TIP3    H2 8596   0.317   0.721   3.452  0.2201 -1.9091 -0.0247
 2723TIP3   OH2 8597   2.106   5.440   3.172 -0.4248  0.1687 -0.5273
 2723TIP3    H1 8598   2.101   5.532   3.201 -0.9572  0.2785 -0.9752
 2723TIP3    H2 8599   2.020   5.422   3.135  0.2106 -0.0088 -1.9406
 2724TIP3   OH2 8600   3.330   5.698   2.995  0.1982  0.3576  0.0499
 2724TIP3    H1 8601   3.295   5.647   3.067  2.9684 -1.6079  0.0991
 2724TIP3    H2 8602   3.254   5.736   2.952 -1.7850 -2.1324  1.2813
 2725TIP3   OH2 8603   3.466   1.629   4.081 -0.4424  0.4827 -0.6961
 2725TIP3    H1 8604   3.432   1.652   3.995 -0.0128  1.7619 -0.5377
 2725TIP3    H2 8605   3.388   1.609   4.133 -0.5820 -3.0513 -2.1054
 2726TIP3   OH2 8606   0.054   0.552   1.956  0.2442 -0.0994 -0.2135
 2726TIP3    H1 8607   0.059   0.637   2.000 -0.8849 -0.4704  0.6485
 2726TIP3    H2 8608   0.005   0.568   1.876 -0.5186 -0.0618  0.2608
 2727TIP3   OH2 8609   5.767   5.060   3.822 -0.2078  0.1035 -0.6437
 2727TIP3    H1 8610   5.863   5.055   3.830 -0.1474 -1.2734 -2.0650
 2727TIP3    H2 8611   5.738   4.969   3.816 -1.6096  0.5198 -0.3208
 2728TIP3   OH2 8612   5.490   0.606   0.682  0.0752 -0.1079  0.1710
 2728TIP3    H1 8613   5.477   0.538   0.616 -1.0748  0.0435  0.2411
 2728TIP3    H2 8614   5.408   0.609   0.730  0.1436  1.2927  0.2131
 2729TIP3   OH2 8615   1.402   5.588   3.883  0.0391 -0.4596  0.4753
 2729TIP3    H1 8616   1.313   5.608   3.856 -0.6688 -2.1284  1.4986
 2729TIP3    H2 8617   1.412   5.494   3.865  2.3264  0.1318 -1.6873
 2730TIP3   OH2 8618   5.172   0.248   1.535  0.2352 -0.5753 -0.7546
 2730TIP3    H1 8619   5.112   0.199   1.592 -1.5996  0.0031 -2.1295
 2730TIP3    H2 8620   5.258   0.236   1.575 -0.7613 -1.5807  1.1820
 2731TIP3   OH2 8621   0.879   1.239   0.749  0.0352  0.1104  0.0343
 2731TIP3    H1 8622   0.809   1.275   0.804 -2.0300 -2.0392 -1.0616
 2731TIP3    H2 8623   0.940   1.199   0.811  0.3407  2.0523  1.0122
 2732TIP3   OH2 8624   0.505   0.044   0.733 -0.4417  0.3415  0.1768
 2732TIP3    H1 8625   0.449   0.065   0.808  1.4352  2.2039  1.1147
 2732TIP3    H2 8626   0.448   0.055   0.657 -1.1466  3.2067  1.0443
 2733TIP3   OH2 8627   4.700   5.083   1.377  0.1469  0.6161  0.1600
 2733TIP3    H1 8628   4.684   5.044   1.291 -0.9246  2.3274 -0.4432
 2733TIP3    H2 8629   4.759   5.022   1.421 -0.9631 -1.3364 -1.0019
 2734TIP3   OH2 8630   0.449   5.589   3.265  0.9601 -0.0257 -0.5196
 2734TIP3    H1 8631   0.436   5.556   3.354  0.2940  1.1624 -0.1648
 2734TIP3    H2 8632   0.508   5.525   3.224 -0.0528 -1.4928  0.2309
 2735TIP3   OH2 8633   4.166   0.079   3.048 -0.1037 -0.3081 -0.3104
 2735TIP3    H1 8634   4.146   0.051   3.137  0.8236  2.7261  0.9300
 2735TIP3    H2 8635   4.081   0.084   3.005 -0.5030 -2.3974  0.1813
 2736TIP3   OH2 8636   3.596   0.094   3.175 -0.1035  0.0414  0.2322
 2736TIP3    H1 8637   3.653   0.124   3.104 -0.5742  1.5093  0.4574
 2736TIP3    H2 8638   3.514   0.071   3.131 -0.8397  2.1689  0.4078
 2737TIP3   OH2 8639   4.841   0.142   2.935 -0.0919  0.2069  0.1997
 2737TIP3    H1 8640   4.806   0.061   2.970  1.5059 -0.0770  1.1804
 2737TIP3    H2 8641   4.794   0.155   2.853  1.0390 -2.7610 -0.9888
 2738TIP3   OH2 8642   1.275   0.791   2.012  0.4853  0.7936  0.0520
 2738TIP3    H1 8643   1.268   0.726   2.082 -0.0741  0.4343 -0.3276
 2738TIP3    H2 8644   1.193   0.840   2.016 -0.4135 -0.4989 -1.5794
 2739TIP3   OH2 8645   4.084   0.683   2.605  0.0035 -0.0259  0.2074
 2739TIP3    H1 8646   4.129   0.678   2.521  0.4104  1.1044  0.3492
 2739TIP3    H2 8647   4.010   0.623   2.597  1.1492 -1.4262 -0.2647
 2740TIP3   OH2 8648   4.579   6.021   2.493  0.1835  0.0992 -0.4600
 2740TIP3    H1 8649   4.580   5.946   2.553  1.8682  0.2672 -0.2520
 2740TIP3    H2 8650   4.603   6.096   2.548 -0.4976  0.6362 -0.8812
 2741TIP3   OH2 8651   3.890   0.598   4.732  0.7383 -0.0182  0.3321
 2741TIP3    H1 8652   3.970   0.549   4.747  1.9078  1.3894 -1.1099
 2741TIP3    H2 8653   3.854   0.563   4.651  0.5109  0.1337  0.3640
 2742TIP3   OH2 8654   4.763   1.747   1.635 -0.1057  0.2415  0.4199
 2742TIP3    H1 8655   4.683   1.781   1.594 -0.3932 -0.7724  0.1228
 2742TIP3    H2 8656   4.802   1.690   1.569  0.9117  0.8038  0.5381
 2743TIP3   OH2 8657   2.544   5.823   1.175 -0.3840 -0.1449 -0.2666
 2743TIP3    H1 8658   2.575   5.733   1.185 -0.4897 -0.4340 -2.4465
 2743TIP3    H2 8659   2.459   5.824   1.219 -1.4634 -1.7340 -2.2770
 2744TIP3   OH2 8660   5.014   1.962   3.457 -0.1416  0.5757 -0.1362
 2744TIP3    H1 8661   5.038   1.912   3.535  0.6116  1.5593  0.2596
 2744TIP3    H2 8662   4.918   1.955   3.453 -0.1767  0.4789  0.8404
 2745TIP3   OH2 8663   5.068   1.837   3.711 -0.3062 -0.3337 -0.8177
 2745TIP3    H1 8664   5.117   1.758   3.686  0.9921 -0.1099  0.9056
 2745TIP3    H2 8665   5.027   1.813   3.794  0.0878  0.8084 -0.2950
 2746TIP3   OH2 8666   0.645   1.717   1.284 -0.1009  0.5078  0.1934
 2746TIP3    H1 8667   0.574   1.710   1.220 -0.4960  1.6477  0.5033
 2746TIP3    H2 8668   0.645   1.809   1.310  0.8768  0.3090  0.9002
 2747TIP3   OH2 8669   4.550   5.545   2.640 -0.3060  0.0471 -0.0739
 2747TIP3    H1 8670   4.594   5.624   2.611  0.1180 -0.6660 -1.3847
 2747TIP3    H2 8671   4.557   5.484   2.567 -1.9633 -0.6794  0.3386
 2748TIP3   OH2 8672   0.688   1.750   3.568  0.2050  0.8252 -0.2647
 2748TIP3    H1 8673   0.740   1.759   3.488 -0.3251 -2.8513 -1.1348
 2748TIP3    H2 8674   0.725   1.814   3.629  3.7706  0.3920 -1.8493
 2749TIP3   OH2 8675   5.788   5.865   1.177 -0.0105 -0.8843  0.2501
 2749TIP3    H1 8676   5.752   5.892   1.262  1.3297 -0.6639  0.7572
 2749TIP3    H2 8677   5.850   5.796   1.199  0.7161 -0.4699 -0.5030
 2750TIP3   OH2 8678   5.552   0.044   3.932 -0.5752  0.2975  0.2609
 2750TIP3    H1 8679   5.551  -0.030   3.992 -0.5893 -0.6325 -0.8801
 2750TIP3    H2 8680   5.473   0.034   3.879  0.1973  0.2778 -0.9129
 2751TIP3   OH2 8681   3.609   0.058   1.776  0.3477  0.6996  0.0863
 2751TIP3    H1 8682   3.548   0.087   1.708  2.7552 -0.5878 -2.7213
 2751TIP3    H2 8683   3.690   0.106   1.757  1.6488 -1.1348  0.8235
 2752TIP3   OH2 8684   2.597   1.928   3.824  0.0104 -0.0140  0.0845
 2752TIP3    H1 8685   2.503   1.924   3.843  0.4787 -1.0414  2.3591
 2752TIP3    H2 8686   2.617   1.844   3.784 -0.1391  0.4481 -0.9809
 2753TIP3   OH2 8687   1.576   0.108   2.620 -0.2876  0.0386 -0.4621
 2753TIP3    H1 8688   1.505   0.134   2.679 -0.1557  1.9359 -1.1139
 2753TIP3    H2 8689   1.590   0.015   2.639 -2.7968 -0.3082 -0.1764
 2754TIP3   OH2 8690   1.127   1.975   2.415  0.2259 -0.4586 -0.2176
 2754TIP3    H1 8691   1.181   1.996   2.490  1.4489 -3.5103 -0.1553
 2754TIP3    H2 8692   1.056   1.921   2.451 -0.7471  0.3770 -0.8550
 2755TIP3   OH2 8693   3.730   1.527   2.193  0.2386  0.2756  0.0055
 2755TIP3    H1 8694   3.771   1.611   2.174  0.7679 -0.7138 -3.5379
 2755TIP3    H2 8695   3.649   1.550   2.239  1.0314  2.6284  0.2960
 2756TIP3   OH2 8696   4.451   1.120   3.678  0.1449  0.0832  1.0299
 2756TIP3    H1 8697   4.514   1.160   3.739  0.4147 -0.5392  1.1629
 2756TIP3    H2 8698   4.378   1.092   3.734  0.9812 -1.6996  1.2750
 2757TIP3   OH2 8699   4.784   1.187   1.239  0.0617  0.2734  0.1868
 2757TIP3    H1 8700   4.758   1.216   1.151 -3.8107 -3.1858  0.0304
 2757TIP3    H2 8701   4.856   1.126   1.223 -0.5294 -0.2344 -0.5802
 2758TIP3   OH2 8702   4.787   6.025   1.035  0.0722  0.3257  0.4859
 2758TIP3    H1 8703   4.733   5.957   0.996 -0.8765  1.3710 -0.0721
 2758TIP3    H2 8704   4.730   6.065   1.102  0.4952  0.7864  0.5737
 2759TIP3   OH2 8705   4.220   2.320   2.212  0.2846 -0.9711  0.2531
 2759TIP3    H1 8706   4.248   2.277   2.293 -0.4648 -0.9745  0.5229
 2759TIP3    H2 8707   4.137   2.362   2.236  0.1828 -0.7759 -0.4521
 2760TIP3   OH2 8708   0.423   0.542   1.296  0.5175  0.2805 -0.5660
 2760TIP3    H1 8709   0.379   0.518   1.214 -0.0889 -0.5942  0.0126
 2760TIP3    H2 8710   0.370   0.501   1.365  0.6471  1.5718  0.3065
 2761TIP3   OH2 8711   1.486   0.377   2.124 -0.4350  0.1259  0.4420
 2761TIP3    H1 8712   1.543   0.385   2.200  0.4115  2.0611 -0.3698
 2761TIP3    H2 8713   1.543   0.392   2.049 -1.8428  1.3387 -0.4152
 2762TIP3   OH2 8714   4.436   6.062   2.292 -0.3482 -0.0779  0.0858
 2762TIP3    H1 8715   4.482   6.031   2.370 -0.2690 -0.7024 -0.1990
 2762TIP3    H2 8716   4.504   6.068   2.225 -0.6406 -0.8187 -0.2847
 2763TIP3   OH2 8717   4.628   0.930   0.718  0.4040 -0.1595 -0.5769
 2763TIP3    H1 8718   4.639   1.002   0.656  0.0855 -1.1099 -1.7652
 2763TIP3    H2 8719   4.673   0.856   0.677  0.9837 -0.5712  0.7615
 2764TIP3   OH2 8720   5.601   1.419   3.945 -0.3440 -0.7398  0.1794
 2764TIP3    H1 8721   5.580   1.389   4.034 -0.5267  0.6052  0.6046
 2764TIP3    H2 8722   5.697   1.427   3.945 -0.3546 -0.5935  0.3154
 2765TIP3   OH2 8723   4.399   0.141   1.153 -0.6131  0.2818 -0.0620
 2765TIP3    H1 8724   4.339   0.197   1.104 -0.1506  0.0469 -0.8933
 2765TIP3    H2 8725   4.485   0.160   1.118  0.0085  1.6573  2.1040
 2766TIP3   OH2 8726   4.871   5.930   2.499 -0.1462 -0.4062 -0.3966
 2766TIP3    H1 8727   4.859   5.876   2.578  1.4837  0.2525  0.3075
 2766TIP3    H2 8728   4.822   5.882   2.431 -1.3827 -1.1018  0.9342
 2767TIP3   OH2 8729   5.272   1.920   0.300 -0.3795 -0.2678  0.5734
 2767TIP3    H1 8730   5.335   1.934   0.370  1.7274 -0.4412 -1.2353
 2767TIP3    H2 8731   5.206   1.989   0.312  1.4414  1.4166  1.0620
 2768TIP3   OH2 8732   5.037   0.780   2.282 -0.4363 -0.2148  0.2587
 2768TIP3    H1 8733   5.078   0.845   2.340 -0.4584  2.4561 -2.5518
 2768TIP3    H2 8734   4.948   0.771   2.314 -0.4503  1.2483  0.6652
 2769TIP3   OH2 8735   1.041   4.652   2.693 -0.0301 -0.1648  0.9618
 2769TIP3    H1 8736   1.059   4.561   2.668  0.0954  0.0243  0.3527
 2769TIP3    H2 8737   1.009   4.693   2.613  1.2279  0.6772  0.8746
 2770TIP3   OH2 8738   3.418   0.491   3.587  0.1554  0.4508  0.5089
 2770TIP3    H1 8739   3.414   0.403   3.624 -1.2663  0.6151  0.7712
 2770TIP3    H2 8740   3.507   0.498   3.552  0.9090 -0.4035  2.1730
 2771TIP3   OH2 8741   6.032   0.636   1.707 -0.1578  0.3907  0.3292
 2771TIP3    H1 8742   6.113   0.675   1.675 -0.6727  1.2633  0.0490
 2771TIP3    H2 8743   5.976   0.711   1.726  0.0184 -0.1229  3.0044
 2772TIP3   OH2 8744   4.422   1.085   1.724 -0.1704  0.4370 -0.1264
 2772TIP3    H1 8745   4.515   1.063   1.730 -0.7116 -2.3608 -0.9313
 2772TIP3    H2 8746   4.406   1.145   1.797  2.0853  0.3062  0.5024
 2773TIP3   OH2 8747   2.135   5.219   2.718 -0.0538  0.0362  0.0783
 2773TIP3    H1 8748   2.201   5.248   2.655  0.2346  0.5558  0.6171
 2773TIP3    H2 8749   2.178   5.148   2.766 -0.0807  0.0089  0.0615
 2774TIP3   OH2 8750   4.398   5.922   3.981  0.1705  0.0449 -0.1834
 2774TIP3    H1 8751   4.416   5.997   4.038  1.0065  0.7359 -1.3231
 2774TIP3    H2 8752   4.320   5.949   3.931 -2.1636 -1.6093  2.4187
 2775TIP3   OH2 8753   5.298   0.064   3.807  0.2092  0.3741  0.4250
 2775TIP3    H1 8754   5.245  -0.015   3.800 -0.3092  0.3986  3.2876
 2775TIP3    H2 8755   5.242   0.126   3.853  1.1223  1.9503 -0.5290
 2776TIP3   OH2 8756   4.490   3.577   2.231 -0.1082 -0.3993  0.4722
 2776TIP3    H1 8757   4.511   3.533   2.313 -1.0461 -1.1620  0.3199
 2776TIP3    H2 8758   4.410   3.533   2.201 -0.3360  0.5561 -0.3316
 2777TIP3   OH2 8759   1.158   2.048   1.123  0.0000 -0.3902 -0.4011
 2777TIP3    H1 8760   1.217   2.112   1.163 -0.6090  0.1282 -0.3369
 2777TIP3    H2 8761   1.216   1.989   1.075  0.4633  0.8668 -1.4036
 2778TIP3   OH2 8762   3.845   0.265   5.247 -0.6426 -0.3456  0.1596
 2778TIP3    H1 8763   3.845   0.358   5.226  1.2082 -0.2106  0.6610
 2778TIP3    H2 8764   3.777   0.256   5.314  0.8181  1.1014  1.8907
 2779TIP3   OH2 8765   5.427   0.222   1.662  0.5561 -0.1487  0.5216
 2779TIP3    H1 8766   5.380   0.185   1.737  1.6242 -1.4343  0.5636
 2779TIP3    H2 8767   5.441   0.148   1.603  0.9447  0.5846 -0.3176
 2780TIP3   OH2 8768   2.848   1.721   3.058  0.1272  0.4324  0.3945
 2780TIP3    H1 8769   2.823   1.655   3.124  1.5523  1.3156  1.8632
 2780TIP3    H2 8770   2.765   1.754   3.024 -0.6222 -0.6304  1.1568
 2781TIP3   OH2 8771   2.444   1.340   6.018  0.1973 -0.3933 -0.1379
 2781TIP3    H1 8772   2.379   1.347   5.948  0.4979  0.1170 -0.3686
 2781TIP3    H2 8773   2.422   1.258   6.063 -1.3188  0.3732  0.5352
 2782TIP3   OH2 8774   2.921   5.963   4.051  0.4862  0.3699  0.5494
 2782TIP3    H1 8775   2.895   6.027   4.117 -1.3494  0.1790  0.0491
 2782TIP3    H2 8776   2.924   5.880   4.099  1.1912  0.5618  0.8363
 2783TIP3   OH2 8777   0.355   0.418   3.422 -0.6108  0.3632 -0.5302
 2783TIP3    H1 8778   0.434   0.366   3.406 -0.4495  0.1145  0.9426
 2783TIP3    H2 8779   0.326   0.390   3.510 -0.5526  2.7298  0.2704
 2784TIP3   OH2 8780   3.904   2.610   4.492 -0.2083 -0.1268  0.2424
 2784TIP3    H1 8781   3.887   2.580   4.402 -1.1509  1.1817 -0.0161
 2784TIP3    H2 8782   3.851   2.552   4.546  0.4055 -0.9588 -0.0288
 2785TIP3   OH2 8783   2.759   1.190   5.855  0.1018  0.6477 -0.3797
 2785TIP3    H1 8784   2.707   1.261   5.818 -1.4262 -0.2674 -0.0772
 2785TIP3    H2 8785   2.729   1.183   5.946 -0.5663 -1.0654 -0.7004
 2786TIP3   OH2 8786   5.746   1.891   5.451 -0.1929  0.1650  0.2920
 2786TIP3    H1 8787   5.787   1.973   5.424  0.1133  0.4111  1.4861
 2786TIP3    H2 8788   5.684   1.916   5.519 -0.6917 -0.4930  0.0908
 2787TIP3   OH2 8789   2.799   1.331   1.438 -0.1349  0.2400 -0.0162
 2787TIP3    H1 8790   2.748   1.395   1.486  2.6426  2.0802  0.5775
 2787TIP3    H2 8791   2.858   1.293   1.503  0.7846 -0.2368 -1.1036
 2788TIP3   OH2 8792   2.720   0.853   2.571 -0.4083  0.4738 -0.0762
 2788TIP3    H1 8793   2.726   0.925   2.508 -1.6481  1.7201  1.1714
 2788TIP3    H2 8794   2.695   0.896   2.653  0.9376 -1.1455  1.2037
 2789TIP3   OH2 8795   4.840   2.891   3.245  0.6722  0.0563  0.0347
 2789TIP3    H1 8796   4.904   2.962   3.239  1.2650 -0.4156  0.6864
 2789TIP3    H2 8797   4.800   2.886   3.158  0.6643  1.1523 -0.0202
 2790TIP3   OH2 8798   3.399   2.898   4.487  0.0263 -0.7472  0.5894
 2790TIP3    H1 8799   3.414   2.962   4.557  0.8306  1.1432 -1.2162
 2790TIP3    H2 8800   3.331   2.938   4.432  4.0713  1.1707 -3.4193
 2791TIP3   OH2 8801   3.438   5.942   0.212 -0.4461 -0.0979 -0.2911
 2791TIP3    H1 8802   3.392   5.900   0.285  1.1985 -0.7601  0.3978
 2791TIP3    H2 8803   3.460   6.030   0.245  0.0204 -0.2851 -0.1010
 2792TIP3   OH2 8804   5.990   4.920   5.629 -0.2608 -0.1241 -0.2799
 2792TIP3    H1 8805   6.013   4.839   5.585  1.1563  0.8393 -1.3276
 2792TIP3    H2 8806   6.069   4.945   5.677 -1.0649  0.0289  0.9925
 2793TIP3   OH2 8807   5.133   1.989   2.107  0.3020 -0.4186 -0.1242
 2793TIP3    H1 8808   5.174   2.075   2.103 -0.6697 -0.0047 -1.7880
 2793TIP3    H2 8809   5.053   2.002   2.157 -0.7714  0.0767 -1.9039
 2794TIP3   OH2 8810   3.301   0.279   4.954  0.3546  0.4240 -0.1252
 2794TIP3    H1 8811   3.368   0.301   4.889 -1.1676  1.2245 -1.4345
 2794TIP3    H2 8812   3.271   0.364   4.987 -2.3606  0.2182 -1.9424
 2795TIP3   OH2 8813   3.069   1.911   1.981  0.5916 -0.8048  0.3989
 2795TIP3    H1 8814   3.010   1.878   2.049 -0.3239 -1.0278 -0.4853
 2795TIP3    H2 8815   3.027   1.886   1.899  1.2986  0.1336 -0.2620
 2796TIP3   OH2 8816   3.123   5.680   5.286  0.1216 -0.2399  0.0379
 2796TIP3    H1 8817   3.162   5.749   5.233  0.0737 -0.1400  0.1326
 2796TIP3    H2 8818   3.065   5.725   5.347 -2.0053 -0.5804 -1.6721
 2797TIP3   OH2 8819   5.580   1.400   3.316  0.6338 -0.5762 -0.0500
 2797TIP3    H1 8820   5.665   1.391   3.359  0.7479  1.9517  0.3094
 2797TIP3    H2 8821   5.601   1.412   3.223  0.5800 -1.5401 -0.1946
 2798TIP3   OH2 8822   5.129   2.721   3.035  0.0607  0.1395 -0.4204
 2798TIP3    H1 8823   5.216   2.759   3.023  0.4689 -0.6789 -0.0837
 2798TIP3    H2 8824   5.137   2.631   3.005 -0.8710  0.2718 -1.0855
 2799TIP3   OH2 8825   4.686   5.935   3.304 -0.0784  0.1666  0.4654
 2799TIP3    H1 8826   4.611   5.884   3.335  0.0479  0.9477  2.1615
 2799TIP3    H2 8827   4.762   5.882   3.327 -0.0105  0.5027  1.0407
 2800TIP3   OH2 8828   1.570   5.769   1.663 -0.1565 -0.3435 -0.0371
 2800TIP3    H1 8829   1.577   5.849   1.611 -1.4438 -0.0452  0.2239
 2800TIP3    H2 8830   1.552   5.799   1.752 -0.2283 -0.9045  0.1429
 2801TIP3   OH2 8831   2.330   0.705   1.367  0.3411  0.2043  0.5696
 2801TIP3    H1 8832   2.384   0.706   1.288  0.8186  0.8931  0.9022
 2801TIP3    H2 8833   2.319   0.612   1.387  1.2333  0.0560  0.3842
 2802TIP3   OH2 8834   4.009   1.237   1.966 -0.0154  0.0400 -0.3798
 2802TIP3    H1 8835   4.003   1.295   2.043 -0.3818 -1.0950  0.4575
 2802TIP3    H2 8836   3.989   1.150   2.000 -1.0457 -0.3484 -1.9389
 2803TIP3   OH2 8837   4.277   0.497   3.958  0.5050 -0.1988 -0.2716
 2803TIP3    H1 8838   4.358   0.539   3.928 -0.8326  3.5692  1.0738
 2803TIP3    H2 8839   4.233   0.470   3.877  1.9709 -0.0934 -1.1225
 2804TIP3   OH2 8840   5.213   0.563   3.149  0.1194 -0.1106 -0.1664
 2804TIP3    H1 8841   5.130   0.536   3.190  0.2331 -0.2585 -0.0313
 2804TIP3    H2 8842   5.210   0.659   3.149 -0.9640 -0.1140 -2.0240
 2805TIP3   OH2 8843   5.515   5.891   3.453 -0.5166  0.2959 -0.2292
 2805TIP3    H1 8844   5.463   5.951   3.400 -1.1140  0.7259  0.8417
 2805TIP3    H2 8845   5.602   5.931   3.457 -0.7308  0.7477 -0.0809
 2806TIP3   OH2 8846   3.374   5.355   2.601 -1.0971 -0.9814 -0.3211
 2806TIP3    H1 8847   3.457   5.362   2.554 -0.1690  1.5236  1.5712
 2806TIP3    H2 8848   3.399   5.330   2.690 -2.4189 -0.7513  0.1318
 2807TIP3   OH2 8849   3.171   0.252   4.544  0.3624  0.5282  0.2320
 2807TIP3    H1 8850   3.213   0.192   4.605  0.0311  0.4155  0.3478
 2807TIP3    H2 8851   3.244   0.298   4.502  0.7602 -1.8947 -1.8701
 2808TIP3   OH2 8852   4.825   0.103   2.383  0.3153 -0.0518 -0.2430
 2808TIP3    H1 8853   4.886   0.116   2.310  1.4091  0.4910  0.7517
 2808TIP3    H2 8854   4.843   0.014   2.414  1.3212  0.4639  0.6889
 2809TIP3   OH2 8855   0.440   0.104   3.316 -0.5157  0.3228  0.2919
 2809TIP3    H1 8856   0.447   0.068   3.404  1.4196 -0.6613 -0.2255
 2809TIP3    H2 8857   0.499   0.180   3.317  0.9964 -0.8111 -0.6696
 2810TIP3   OH2 8858   3.320   5.498   5.087  0.7937  0.2126 -0.3597
 2810TIP3    H1 8859   3.292   5.429   5.148  0.0837 -0.7895 -1.7825
 2810TIP3    H2 8860   3.362   5.564   5.143  1.7320 -1.4902  1.0086
 2811TIP3   OH2 8861   5.526   5.817   4.450  0.4226  0.6422  0.4010
 2811TIP3    H1 8862   5.457   5.877   4.477  2.3529  2.7979  0.7361
 2811TIP3    H2 8863   5.553   5.772   4.530  0.4428  0.9234  0.5517
 2812TIP3   OH2 8864   3.499   0.048   5.299 -0.0423  0.1049  0.2235
 2812TIP3    H1 8865   3.540   0.121   5.345 -2.6177  1.3407  0.6374
 2812TIP3    H2 8866   3.468  -0.010   5.368  2.0785 -1.4919 -0.1041
 2813TIP3   OH2 8867   0.457   0.033   3.577 -0.2892 -0.1611 -0.1033
 2813TIP3    H1 8868   0.388   0.095   3.604 -0.1006  0.5117 -1.1549
 2813TIP3    H2 8869   0.497   0.006   3.660  1.9005  3.7630  0.2585
 2814TIP3   OH2 8870   4.176   5.488   2.851 -0.0643  0.4462  0.2492
 2814TIP3    H1 8871   4.204   5.473   2.761  2.7455 -1.8557  1.4183
 2814TIP3    H2 8872   4.211   5.574   2.873  0.0427  0.6058 -0.5347
 2815TIP3   OH2 8873   3.006   3.959   2.687  0.0615  0.1419 -0.7399
 2815TIP3    H1 8874   3.011   4.032   2.749 -1.9586  1.5205 -2.1028
 2815TIP3    H2 8875   3.093   3.955   2.647  0.7672  0.5502  0.7326
 2816TIP3   OH2 8876   4.547   1.603   2.883 -0.0294  0.0416  0.5962
 2816TIP3    H1 8877   4.608   1.531   2.896  0.5364  0.2531 -0.7131
 2816TIP3    H2 8878   4.583   1.650   2.807 -1.4943  0.5203  0.1905
 2817TIP3   OH2 8879   5.956   0.634   3.689 -0.2491  0.3544  0.1781
 2817TIP3    H1 8880   5.901   0.709   3.713  0.4011  1.2492 -1.1160
 2817TIP3    H2 8881   6.045   0.670   3.683 -0.1436 -0.1984 -1.8793
 2818TIP3   OH2 8882   2.979   1.478   2.717  1.4323 -0.4270 -0.2530
 2818TIP3    H1 8883   3.014   1.454   2.803 -0.3748 -0.0245  0.6192
 2818TIP3    H2 8884   2.908   1.415   2.702  1.0409  0.1713 -0.9534
 2819TIP3   OH2 8885   5.203   1.534   4.430  0.6133 -0.0855 -0.3774
 2819TIP3    H1 8886   5.208   1.533   4.525  0.9622  0.1787 -0.3924
 2819TIP3    H2 8887   5.109   1.531   4.411  0.5059  0.7169 -0.0096
 2820TIP3   OH2 8888   1.673   1.662   1.502 -0.7713  0.2505  0.2450
 2820TIP3    H1 8889   1.580   1.669   1.482 -1.1454 -0.2699  1.6878
 2820TIP3    H2 8890   1.691   1.568   1.501 -0.1604  0.3763 -0.4666
 2821TIP3   OH2 8891   6.050   2.110   4.039  0.2161  0.2966 -0.2586
 2821TIP3    H1 8892   6.005   2.181   3.993  0.0680  0.8694  0.7582
 2821TIP3    H2 8893   6.058   2.040   3.973 -0.8431  0.7401 -0.8748
 2822TIP3   OH2 8894   5.679   5.955   1.423  0.4219 -0.2543  0.6168
 2822TIP3    H1 8895   5.698   6.045   1.450 -0.8767  0.4503 -0.7670
 2822TIP3    H2 8896   5.620   5.922   1.491 -0.0547  0.3401  0.4958
 2823TIP3   OH2 8897   3.149   5.707   4.364 -0.5532  0.1154  0.3780
 2823TIP3    H1 8898   3.215   5.647   4.327 -0.7605  1.1924 -1.8238
 2823TIP3    H2 8899   3.129   5.669   4.450  3.0174 -0.1783  1.1972
 2824TIP3   OH2 8900   0.075   1.812   1.632 -0.0869  0.1287  0.6025
 2824TIP3    H1 8901   0.151   1.838   1.684 -0.3192 -1.0242  1.5454
 2824TIP3    H2 8902  -0.001   1.842   1.682 -0.2671  1.4757 -0.4457
 2825TIP3   OH2 8903   5.067   2.267   1.420  0.4326  0.6900  0.0996
 2825TIP3    H1 8904   5.109   2.210   1.484 -1.0017  0.3477  0.7354
 2825TIP3    H2 8905   4.974   2.261   1.439  0.1449  2.0441 -0.8258
 2826TIP3   OH2 8906   6.054   1.193   2.799 -0.6384 -0.2415 -0.0329
 2826TIP3    H1 8907   6.090   1.114   2.838 -1.7228 -0.3333  0.8189
 2826TIP3    H2 8908   6.003   1.162   2.724 -0.1911 -0.2466 -0.3376
 2827TIP3   OH2 8909   4.561   1.997   4.128  0.1735  0.1762  0.1892
 2827TIP3    H1 8910   4.620   1.961   4.063 -0.0926  1.2954 -0.6831
 2827TIP3    H2 8911   4.566   1.936   4.202  0.0921 -1.3581 -1.0601
 2828TIP3   OH2 8912   0.146   2.256   1.516  0.5686  0.4345  0.1499
 2828TIP3    H1 8913   0.053   2.278   1.507  0.4130  0.7043  2.2784
 2828TIP3    H2 8914   0.154   2.169   1.475 -0.8893 -0.1717  1.1070
 2829TIP3   OH2 8915   5.391   6.047   2.171 -0.3151 -0.3895  0.0025
 2829TIP3    H1 8916   5.484   6.072   2.171 -0.4702  0.1808 -0.3587
 2829TIP3    H2 8917   5.349   6.112   2.226 -0.8169  0.5379 -1.4396
 2830TIP3   OH2 8918   5.923   1.578   3.337  0.2633  0.2830 -0.6428
 2830TIP3    H1 8919   5.990   1.616   3.393 -0.2784  0.7447 -0.3044
 2830TIP3    H2 8920   5.960   1.582   3.248 -0.0846  2.2733 -0.7086
 2831TIP3   OH2 8921   3.369   1.084   1.304  0.2092 -0.2957 -1.1217
 2831TIP3    H1 8922   3.275   1.064   1.311  0.1335 -0.1667 -1.7231
 2831TIP3    H2 8923   3.398   1.096   1.395 -0.3142 -0.5299 -0.9210
 2832TIP3   OH2 8924   4.746   6.007   3.033  0.0882  0.3326 -0.1831
 2832TIP3    H1 8925   4.660   5.983   3.001  0.7510 -1.2726 -0.8117
 2832TIP3    H2 8926   4.756   5.958   3.115  0.1442  1.0298  0.2331
 2833TIP3   OH2 8927   4.335   0.996   4.546 -0.5727  0.3361  0.4029
 2833TIP3    H1 8928   4.313   1.054   4.619 -0.4867  0.6526  0.1827
 2833TIP3    H2 8929   4.368   1.055   4.478 -1.9644  0.2316 -0.4098
 2834TIP3   OH2 8930   1.756   0.519   2.772 -0.1212 -0.3493 -0.1465
 2834TIP3    H1 8931   1.844   0.542   2.743 -0.5108  0.0303 -1.0382
 2834TIP3    H2 8932   1.770   0.473   2.855  0.8363  0.6735  0.2673
 2835TIP3   OH2 8933   0.780   1.776   1.774 -0.1183 -0.3447 -0.2668
 2835TIP3    H1 8934   0.855   1.812   1.821  0.3016 -0.8987 -0.5079
 2835TIP3    H2 8935   0.747   1.849   1.721  0.3131 -0.1255 -0.2326
 2836TIP3   OH2 8936   5.665   0.508   2.489 -0.2520  0.0955 -0.4881
 2836TIP3    H1 8937   5.685   0.456   2.411 -0.1616  0.0561 -0.4398
 2836TIP3    H2 8938   5.626   0.445   2.550  0.2819 -0.0179 -0.2599
 2837TIP3   OH2 8939   3.252   4.729   2.791  0.1365 -0.2029 -0.1099
 2837TIP3    H1 8940   3.281   4.699   2.877 -0.6063 -0.6224 -0.0062
 2837TIP3    H2 8941   3.202   4.809   2.809  0.4090 -0.0146 -0.1960
 2838TIP3   OH2 8942   5.932   0.244   2.663 -0.8328  0.2626 -0.9713
 2838TIP3    H1 8943   5.884   0.286   2.735  1.0903 -0.1132  0.5774
 2838TIP3    H2 8944   6.023   0.270   2.677 -0.0569 -1.9844 -1.7306
 2839TIP3   OH2 8945   5.368   4.185   4.855 -0.1018  0.7518  0.0975
 2839TIP3    H1 8946   5.342   4.095   4.837  0.1171  0.5279  0.8646
 2839TIP3    H2 8947   5.328   4.205   4.940  1.4944  0.6858  0.8930
 2840TIP3   OH2 8948   1.910   5.936   3.831 -0.0309  0.3004  0.3773
 2840TIP3    H1 8949   1.894   5.877   3.758  1.8975 -0.9452  0.9358
 2840TIP3    H2 8950   1.847   5.909   3.898 -0.0566 -0.2323  0.1402
 2841TIP3   OH2 8951   2.672   1.650   3.441 -0.1059 -0.0237  0.0333
 2841TIP3    H1 8952   2.751   1.702   3.429 -1.6965  2.7257  1.0810
 2841TIP3    H2 8953   2.655   1.652   3.535 -0.8708 -1.4869 -0.0448
 2842TIP3   OH2 8954   4.400   1.261   1.494 -0.2624  0.2404  0.1134
 2842TIP3    H1 8955   4.338   1.221   1.432  0.4204 -1.1814  0.3182
 2842TIP3    H2 8956   4.364   1.240   1.580  1.0760 -1.6355  0.2659
 2843TIP3   OH2 8957   1.343   0.054   3.106 -0.5036  0.3051  0.2563
 2843TIP3    H1 8958   1.288   0.069   3.029  0.4284  0.4576 -0.3921
 2843TIP3    H2 8959   1.431   0.076   3.077 -0.0850 -0.0102  1.2607
 2844TIP3   OH2 8960   4.380   0.442   5.862  0.2860 -0.3222 -0.6120
 2844TIP3    H1 8961   4.419   0.401   5.940 -0.2563 -1.1629 -0.7803
 2844TIP3    H2 8962   4.378   0.372   5.797 -0.2527  0.0917 -1.0394
 2845TIP3   OH2 8963   1.100   4.587   1.390  0.0381 -0.2719 -0.0516
 2845TIP3    H1 8964   1.095   4.507   1.337  0.1102  0.3697 -1.0159
 2845TIP3    H2 8965   1.089   4.555   1.480 -1.5233 -1.1923 -0.5496
 2846TIP3   OH2 8966   0.077   0.287   2.402 -0.4528 -0.0445  0.2903
 2846TIP3    H1 8967  -0.011   0.249   2.393 -0.7163  0.4931  0.5987
 2846TIP3    H2 8968   0.073   0.369   2.353  0.2073 -0.5467 -0.6217
 2847TIP3   OH2 8969   0.483   5.197   1.437  0.6617  0.0916 -0.4443
 2847TIP3    H1 8970   0.451   5.154   1.358  0.4587 -0.9013  0.1599
 2847TIP3    H2 8971   0.554   5.254   1.407  0.4128 -0.0841 -1.3715
 2848TIP3   OH2 8972   4.389   1.765   4.123 -0.2237 -0.6530 -0.0442
 2848TIP3    H1 8973   4.326   1.778   4.052  1.6194  1.1782 -1.4104
 2848TIP3    H2 8974   4.355   1.819   4.195 -0.4551 -0.0173 -0.6202
 2849TIP3   OH2 8975   4.335   1.285   4.073 -0.0511  0.5581  0.4691
 2849TIP3    H1 8976   4.327   1.267   3.980 -0.9640  1.7174  0.3021
 2849TIP3    H2 8977   4.392   1.362   4.078  1.0107 -0.2476  0.9480
 2850TIP3   OH2 8978   3.876   5.707   2.627  0.3552  0.1551  0.6314
 2850TIP3    H1 8979   3.886   5.799   2.602 -0.6049  0.5765  1.7056
 2850TIP3    H2 8980   3.857   5.710   2.721  2.5541 -1.2869  1.1520
 2851TIP3   OH2 8981   0.635   2.644   4.489 -0.2136 -0.8835  0.0376
 2851TIP3    H1 8982   0.569   2.683   4.432 -0.5330 -0.7883  0.4720
 2851TIP3    H2 8983   0.694   2.598   4.429 -0.1624 -0.2225 -0.4237
 2852TIP3   OH2 8984   5.319   6.033   3.323  0.5510  0.3238  0.0961
 2852TIP3    H1 8985   5.293   6.052   3.233  0.1360  0.4368  0.2365
 2852TIP3    H2 8986   5.317   6.118   3.367  1.7078  0.4226 -0.0225
 2853TIP3   OH2 8987   3.735   1.194   3.273 -0.2742  0.5638  0.1558
 2853TIP3    H1 8988   3.667   1.164   3.214 -1.2844  2.5842  0.2666
 2853TIP3    H2 8989   3.731   1.134   3.347 -0.2461 -0.8423 -0.9695
 2854TIP3   OH2 8990   5.360   4.614   2.349 -0.4959 -0.2223  0.0098
 2854TIP3    H1 8991   5.340   4.620   2.443  0.4001  0.6567  0.1519
 2854TIP3    H2 8992   5.455   4.612   2.345 -0.5486 -2.1873 -0.7853
 2855TIP3   OH2 8993   5.022   5.581   3.530  0.2140  0.2377  0.3676
 2855TIP3    H1 8994   5.074   5.650   3.489 -0.2559  0.8711  0.8339
 2855TIP3    H2 8995   5.073   5.501   3.515  0.6670  0.6493 -0.3356
 2856TIP3   OH2 8996   4.618   1.419   3.381  0.1738  0.2473  0.3101
 2856TIP3    H1 8997   4.679   1.357   3.420 -0.2197  0.4745  1.2862
 2856TIP3    H2 8998   4.532   1.380   3.395  0.1250 -0.5238 -1.8667
 2857TIP3   OH2 8999   1.049   0.960   3.023  0.7278 -0.7302  0.1553
 2857TIP3    H1 9000   1.040   1.054   3.040  2.0668 -0.3515 -1.2175
 2857TIP3    H2 9001   0.968   0.922   3.059  0.0274  0.9689  0.4289
 2858TIP3   OH2 9002   2.439   2.003   0.915 -0.0895 -1.1462 -0.2645
 2858TIP3    H1 9003   2.354   1.974   0.946  0.1379 -0.6347  0.8549
 2858TIP3    H2 9004   2.421   2.087   0.872  0.0455 -0.4294  1.0860
 2859TIP3   OH2 9005   4.375   1.511   2.520 -0.3987  0.0994 -0.0265
 2859TIP3    H1 9006   4.389   1.603   2.496 -1.7280  0.2999 -0.1054
 2859TIP3    H2 9007   4.282   1.496   2.500 -0.3725 -1.0380  0.6991
 2860TIP3   OH2 9008   5.649   5.586   2.042 -0.7505  0.2544  0.8685
 2860TIP3    H1 9009   5.582   5.527   2.005 -0.4964 -0.6122  1.7711
 2860TIP3    H2 9010   5.698   5.530   2.102  0.4658  1.0221  0.5822
 2861TIP3   OH2 9011   3.730   1.496   2.594 -0.3424 -0.7296 -0.1422
 2861TIP3    H1 9012   3.657   1.435   2.604 -1.7465  1.0318  0.4569
 2861TIP3    H2 9013   3.705   1.553   2.522  1.1774 -1.1094 -1.0122
 2862TIP3   OH2 9014   5.725   5.010   3.089  0.3805  0.5205  0.2886
 2862TIP3    H1 9015   5.686   4.951   3.025 -0.4432  0.1537  1.1068
 2862TIP3    H2 9016   5.683   5.095   3.073  0.4892  0.5302  0.0600
 2863TIP3   OH2 9017   5.838   1.763   4.269  0.5536  0.0572  0.3530
 2863TIP3    H1 9018   5.849   1.815   4.348  3.1217 -2.5486  1.7997
 2863TIP3    H2 9019   5.889   1.809   4.202  1.4663  0.2541  1.1821
 2864TIP3   OH2 9020   5.777   5.638   1.769  0.1828 -0.3564  0.1620
 2864TIP3    H1 9021   5.857   5.600   1.735 -0.2647 -0.7395 -0.4640
 2864TIP3    H2 9022   5.778   5.616   1.863  0.1800 -1.4410 -0.0930
 2865TIP3   OH2 9023   5.989   0.911   1.772  0.3501  0.1600 -0.0427
 2865TIP3    H1 9024   6.010   0.908   1.866 -1.1117  0.2425  0.2948
 2865TIP3    H2 9025   5.985   1.005   1.752 -0.0414  0.1412 -0.0378
 2866TIP3   OH2 9026   4.287   0.038   1.487 -0.0734  0.2124 -0.4048
 2866TIP3    H1 9027   4.245  -0.004   1.562  1.8867  0.9057  1.1433
 2866TIP3    H2 9028   4.253   0.128   1.487 -1.0480 -0.1480 -1.1462
 2867TIP3   OH2 9029   1.287   0.207   2.045  0.1619  0.2757 -0.3177
 2867TIP3    H1 9030   1.343   0.273   2.085  0.8674  0.3779 -1.4463
 2867TIP3    H2 9031   1.231   0.256   1.986 -0.9329  0.1343  0.5846
 2868TIP3   OH2 9032   5.926   1.421   2.890  0.2753  0.4149 -0.1971
 2868TIP3    H1 9033   5.892   1.465   2.812 -0.0755 -0.8619 -0.7800
 2868TIP3    H2 9034   5.937   1.330   2.863  0.3123 -0.0051  1.2028
 2869TIP3   OH2 9035   4.053   2.897   3.063 -0.5403  0.6287  0.1293
 2869TIP3    H1 9036   4.052   2.833   3.134 -0.0398 -0.3642 -0.7601
 2869TIP3    H2 9037   3.969   2.886   3.019  0.0967 -0.3980 -0.8762
 2870TIP3   OH2 9038   2.846   0.606   2.537 -0.5685  0.1843 -0.2751
 2870TIP3    H1 9039   2.928   0.644   2.505 -0.8143  0.6239 -0.3870
 2870TIP3    H2 9040   2.794   0.682   2.563 -0.0396 -0.2100  1.9772
 2871TIP3   OH2 9041   4.652   0.973   2.861  0.2100 -0.1325  0.0337
 2871TIP3    H1 9042   4.632   0.887   2.897 -1.1883  0.2325  0.1433
 2871TIP3    H2 9043   4.743   0.966   2.832  1.1250 -0.6749  2.9269
 2872TIP3   OH2 9044   4.699   2.224   0.296  0.6345  0.5310  0.3697
 2872TIP3    H1 9045   4.684   2.197   0.386  1.4050 -0.8482  0.0987
 2872TIP3    H2 9046   4.791   2.250   0.293  0.0829  2.6253  0.4647
 2873TIP3   OH2 9047   4.909   0.969   4.009 -0.1862  0.1144 -0.1803
 2873TIP3    H1 9048   4.976   0.995   3.946 -1.8716  2.1892 -1.1777
 2873TIP3    H2 9049   4.959   0.941   4.086  1.8512  3.3186 -0.2339
 2874TIP3   OH2 9050   3.303   4.153   3.092 -0.3092 -0.4926  0.4176
 2874TIP3    H1 9051   3.220   4.200   3.094 -0.3480 -0.6231  4.0615
 2874TIP3    H2 9052   3.277   4.061   3.080 -0.6063 -0.3721  0.1152
 2875TIP3   OH2 9053   1.150   5.527   4.861  0.1141  0.1324  0.0609
 2875TIP3    H1 9054   1.130   5.573   4.779  1.6021  1.0697  0.2002
 2875TIP3    H2 9055   1.135   5.435   4.841 -1.0165  0.4876 -0.8069
 2876TIP3   OH2 9056   1.713   2.020   0.220 -0.1322  0.3925 -0.6251
 2876TIP3    H1 9057   1.754   1.942   0.184 -1.1661 -1.2346  1.5947
 2876TIP3    H2 9058   1.768   2.045   0.294 -0.4067  1.0892 -0.6549
 2877TIP3   OH2 9059   5.716   1.744   3.151  0.2185  0.2835  0.2542
 2877TIP3    H1 9060   5.762   1.817   3.109 -0.9089 -0.1237 -1.7736
 2877TIP3    H2 9061   5.782   1.675   3.157  0.7925  0.8484  0.5191
 2878TIP3   OH2 9062   0.991   5.343   3.524 -0.5610  0.0859 -0.4551
 2878TIP3    H1 9063   0.926   5.277   3.501 -2.8718  2.0222  0.2513
 2878TIP3    H2 9064   0.969   5.418   3.469  2.0589  0.2813 -1.3053
 2879TIP3   OH2 9065   5.869   5.734   4.884 -0.2961  0.6608 -0.8763
 2879TIP3    H1 9066   5.944   5.683   4.916 -0.0570  2.3690  1.4558
 2879TIP3    H2 9067   5.796   5.705   4.939 -1.5292 -1.3463 -3.4572
 2880TIP3   OH2 9068   2.309   1.255   2.171 -0.3298  0.2405 -0.3281
 2880TIP3    H1 9069   2.243   1.226   2.234  1.0439 -0.8141  0.6450
 2880TIP3    H2 9070   2.267   1.242   2.085 -0.8700 -1.8267  0.2202
 2881TIP3   OH2 9071   5.773   1.358   2.331 -0.4338  0.2555 -0.7348
 2881TIP3    H1 9072   5.680   1.383   2.337 -0.4387  0.0718 -0.0348
 2881TIP3    H2 9073   5.816   1.437   2.298 -0.3169  1.5428  2.3358
 2882TIP3   OH2 9074   5.505   5.888   1.128 -0.4991  0.6163  0.0314
 2882TIP3    H1 9075   5.576   5.911   1.187 -0.8862  0.6808  0.4817
 2882TIP3    H2 9076   5.545   5.830   1.062  0.3771  2.2197 -0.8603
 2883TIP3   OH2 9077   0.573   2.239   5.174  0.0330 -0.3045  0.0934
 2883TIP3    H1 9078   0.623   2.317   5.199 -1.6630  0.5080  1.0511
 2883TIP3    H2 9079   0.550   2.198   5.257  2.4061 -2.8541 -0.4323
 2884TIP3   OH2 9080   0.173   0.470   2.208 -0.3923 -0.0018 -0.1632
 2884TIP3    H1 9081   0.214   0.386   2.187  0.9373  0.8247 -0.9289
 2884TIP3    H2 9082   0.124   0.494   2.130  1.0037  0.9614 -0.7770
 2885TIP3   OH2 9083   0.433   5.275   0.233  0.3061  0.2733 -0.1493
 2885TIP3    H1 9084   0.505   5.337   0.225 -0.3047  1.0713  0.4826
 2885TIP3    H2 9085   0.474   5.193   0.261  0.9860  0.6718  0.0108
 2886TIP3   OH2 9086   5.969   0.795   3.112 -0.5618  0.0696 -0.2836
 2886TIP3    H1 9087   5.930   0.709   3.127 -0.1547  0.2918  2.2893
 2886TIP3    H2 9088   5.913   0.836   3.046 -0.6924 -2.1939 -1.6281
 2887TIP3   OH2 9089   5.199   0.544   0.741 -0.2659  1.1491 -0.0850
 2887TIP3    H1 9090   5.156   0.572   0.822 -0.3972 -1.0300  0.6367
 2887TIP3    H2 9091   5.253   0.469   0.768  0.3248  0.9173 -1.8661
 2888TIP3   OH2 9092   4.271   0.210   0.421 -0.4267  0.3807  0.2092
 2888TIP3    H1 9093   4.363   0.221   0.400 -0.6909 -0.4587 -1.4631
 2888TIP3    H2 9094   4.265   0.124   0.463 -0.6113 -0.1515 -0.8711
 2889TIP3   OH2 9095   3.425   0.120   2.252 -0.4086 -0.6997  0.2338
 2889TIP3    H1 9096   3.410   0.106   2.158 -0.3180 -2.3420  0.4540
 2889TIP3    H2 9097   3.349   0.172   2.280  0.7300  1.8786 -1.1915
 2890TIP3   OH2 9098   0.354   2.550   3.431 -0.2997  0.4771 -0.1817
 2890TIP3    H1 9099   0.259   2.551   3.447 -0.2343  0.7854  0.2056
 2890TIP3    H2 9100   0.362   2.531   3.338 -0.7331  0.0785 -0.1392
 2891TIP3   OH2 9101   2.541   1.845   1.349 -0.4878 -0.3246 -0.8109
 2891TIP3    H1 9102   2.628   1.806   1.344 -0.3907 -0.4315  1.4180
 2891TIP3    H2 9103   2.500   1.823   1.265  1.7313  0.0071 -1.9998
 2892TIP3   OH2 9104   4.123   0.413   2.232  0.1652  0.1410 -0.2057
 2892TIP3    H1 9105   4.190   0.370   2.286  1.0263  1.5189 -0.1277
 2892TIP3    H2 9106   4.095   0.346   2.170  2.6567 -0.0797 -1.1641
 2893TIP3   OH2 9107   5.571   2.079   2.521  0.5452 -0.1026  0.0531
 2893TIP3    H1 9108   5.504   2.127   2.569  0.6826  1.4172 -1.2314
 2893TIP3    H2 9109   5.529   2.057   2.437  0.7768 -1.4768  0.2795
 2894TIP3   OH2 9110   4.662   1.167   3.501 -0.1583  0.0672  0.0896
 2894TIP3    H1 9111   4.657   1.098   3.435 -0.1071 -0.7377  0.9095
 2894TIP3    H2 9112   4.595   1.145   3.565  2.3770 -1.4221  2.3796
 2895TIP3   OH2 9113   0.333   5.880   3.585 -0.5900  0.3881  0.0632
 2895TIP3    H1 9114   0.365   5.970   3.586 -1.0370  0.5550 -0.2407
 2895TIP3    H2 9115   0.240   5.888   3.564  0.0051 -0.3073 -3.1434
 2896TIP3   OH2 9116   4.598   5.173   4.183 -0.4907 -0.4443  0.0266
 2896TIP3    H1 9117   4.574   5.248   4.237 -1.6773  2.3006 -4.1401
 2896TIP3    H2 9118   4.514   5.131   4.162 -0.1092 -0.9837 -0.4357
 2897TIP3   OH2 9119   5.687   5.637   1.399 -0.5957 -0.4398  0.1170
 2897TIP3    H1 9120   5.599   5.611   1.372 -0.5709 -0.2770 -0.1259
 2897TIP3    H2 9121   5.677   5.663   1.490 -0.7804 -0.5164  0.1186
 2898TIP3   OH2 9122   0.133   1.455   2.054 -0.7150 -0.0344  0.1292
 2898TIP3    H1 9123   0.147   1.504   1.974 -1.0877 -0.4660 -0.2055
 2898TIP3    H2 9124   0.098   1.518   2.116  0.5434  0.5330  0.2696
 2899TIP3   OH2 9125   4.681   1.579   1.945 -0.2717  0.5234  0.1884
 2899TIP3    H1 9126   4.643   1.532   2.019 -0.2763 -0.3700 -0.3779
 2899TIP3    H2 9127   4.772   1.593   1.970 -0.7361  1.9112  1.1812
 2900TIP3   OH2 9128   5.899   0.402   1.696  0.3415 -0.1699  0.0973
 2900TIP3    H1 9129   5.939   0.484   1.668 -0.0975  0.1664  0.4452
 2900TIP3    H2 9130   5.849   0.372   1.620  0.9999 -0.4328 -0.2340
 2901TIP3   OH2 9131   0.920   2.113   3.439  0.1174 -0.0807 -0.4818
 2901TIP3    H1 9132   0.978   2.143   3.509 -2.2575  0.0744  1.5119
 2901TIP3    H2 9133   0.906   2.191   3.384  0.0562  0.4529  0.2818
 2902TIP3   OH2 9134   5.698   0.474   0.369  0.1606 -0.1221 -0.1242
 2902TIP3    H1 9135   5.737   0.552   0.409  0.8585  0.6590 -2.2912
 2902TIP3    H2 9136   5.622   0.507   0.320 -0.2541 -0.9790 -0.0778
 2903TIP3   OH2 9137   1.927   5.430   0.007  0.2998  0.5386  0.2927
 2903TIP3    H1 9138   1.997   5.435  -0.058  0.4884 -0.6213  0.4023
 2903TIP3    H2 9139   1.972   5.434   0.091  0.0307  2.3569  0.3645
 2904TIP3   OH2 9140   0.830   4.407   3.929 -0.5908 -0.2928  0.9982
 2904TIP3    H1 9141   0.760   4.353   3.892 -0.8081  0.6453  0.0042
 2904TIP3    H2 9142   0.895   4.344   3.959 -0.7773 -1.1149 -0.2708
 2905TIP3   OH2 9143   1.777   1.145   1.411 -0.3229  0.9924 -0.0964
 2905TIP3    H1 9144   1.707   1.088   1.442  0.2129  0.7675  0.7041
 2905TIP3    H2 9145   1.818   1.096   1.339  0.5163  0.1128  0.9766
 2906TIP3   OH2 9146   0.397   2.457   3.165  0.0314 -0.2017  0.1092
 2906TIP3    H1 9147   0.367   2.417   3.084  1.3577  0.1110 -0.5485
 2906TIP3    H2 9148   0.491   2.435   3.170  0.4447  1.5510  0.4688
 2907TIP3   OH2 9149   5.562   1.007   4.579 -0.0585  0.6328 -0.1895
 2907TIP3    H1 9150   5.575   1.096   4.546  0.9538  0.5463 -0.0515
 2907TIP3    H2 9151   5.478   0.979   4.542  1.2271  0.3863 -3.0603
 2908TIP3   OH2 9152   0.146   3.146   2.536 -0.1623  0.1811  0.5238
 2908TIP3    H1 9153   0.100   3.148   2.620  0.8731  3.1405  1.0611
 2908TIP3    H2 9154   0.239   3.151   2.559  0.2222 -0.7861 -0.7517
 2909TIP3   OH2 9155   4.460   5.357   3.435  0.5796  0.2633 -0.0338
 2909TIP3    H1 9156   4.486   5.392   3.521  0.4561  2.2740 -0.7813
 2909TIP3    H2 9157   4.410   5.278   3.455  2.3605 -0.4837  1.6657
 2910TIP3   OH2 9158   5.043   5.255   2.144  0.1042 -0.5350  0.6535
 2910TIP3    H1 9159   4.970   5.195   2.133 -1.6344  1.3742  1.3203
 2910TIP3    H2 9160   5.101   5.213   2.207 -0.3404 -2.1428 -0.0057
 2911TIP3   OH2 9161   4.361   0.943   2.860 -0.6068  0.1791 -0.3200
 2911TIP3    H1 9162   4.345   0.952   2.766 -1.7650 -1.0985 -0.2607
 2911TIP3    H2 9163   4.361   0.848   2.875 -0.2788  0.3733  0.9481
 2912TIP3   OH2 9164   1.399   1.781   2.229 -0.0858 -0.0219 -0.2008
 2912TIP3    H1 9165   1.408   1.689   2.203 -0.7550  0.2067 -1.2603
 2912TIP3    H2 9166   1.311   1.806   2.201 -0.6740  0.3712  1.9345
 2913TIP3   OH2 9167   5.297   0.288   1.240  0.1859 -0.1622  0.1179
 2913TIP3    H1 9168   5.335   0.208   1.203 -1.5725 -1.1946  0.4583
 2913TIP3    H2 9169   5.256   0.259   1.322 -1.2767  0.8859 -0.2201
 2914TIP3   OH2 9170   1.291   0.596   3.501  0.6930  0.0279 -0.8009
 2914TIP3    H1 9171   1.316   0.576   3.411 -0.1456  0.6618 -1.1842
 2914TIP3    H2 9172   1.334   0.529   3.553  0.5999 -0.7843 -1.7454
 2915TIP3   OH2 9173   5.575   0.399   1.254 -0.1604  0.7009 -0.3771
 2915TIP3    H1 9174   5.548   0.307   1.263 -0.3777  0.9439  1.6896
 2915TIP3    H2 9175   5.499   0.449   1.281  0.2896  1.4842 -0.5555
 2916TIP3   OH2 9176   5.359   0.348   5.497  0.0391 -0.7757 -0.0083
 2916TIP3    H1 9177   5.417   0.325   5.570 -0.3387 -1.2457  0.1499
 2916TIP3    H2 9178   5.273   0.357   5.537  0.0833  0.3950 -0.1638
 2917TIP3   OH2 9179   5.979   5.308   3.211 -0.2982 -0.2498 -0.1544
 2917TIP3    H1 9180   6.015   5.229   3.171  2.0477  1.1132 -0.8241
 2917TIP3    H2 9181   5.975   5.288   3.304 -1.5574 -1.8248 -0.5153
 2918TIP3   OH2 9182   0.384   1.887   2.622  0.4287  0.0475 -0.4979
 2918TIP3    H1 9183   0.428   1.804   2.639  1.3206  0.3568 -1.2571
 2918TIP3    H2 9184   0.441   1.953   2.663 -1.3662  0.1284  2.0156
 2919TIP3   OH2 9185   5.292   2.457   3.473 -0.0829 -0.2171 -0.2936
 2919TIP3    H1 9186   5.383   2.468   3.443 -0.2965  0.5374 -0.6999
 2919TIP3    H2 9187   5.263   2.376   3.432  0.2308 -0.1656 -0.6228
 2920TIP3   OH2 9188   1.839   0.777   2.241  0.4226 -0.4952  0.2025
 2920TIP3    H1 9189   1.888   0.695   2.228 -0.1284 -0.6088 -1.1957
 2920TIP3    H2 9190   1.811   0.802   2.154 -1.0835  0.1708  0.8641
 2921TIP3   OH2 9191   3.698   1.837   3.726 -0.3725  0.6054  0.1873
 2921TIP3    H1 9192   3.681   1.801   3.638 -3.6405 -1.3045  1.5291
 2921TIP3    H2 9193   3.731   1.762   3.776  0.0516  1.3429  1.0165
 2922TIP3   OH2 9194   5.246   2.276   3.159 -0.7242 -0.2760 -0.3159
 2922TIP3    H1 9195   5.183   2.215   3.122  1.3403 -3.1643  0.6963
 2922TIP3    H2 9196   5.244   2.259   3.253  0.5125  0.6315 -0.1028
 2923TIP3   OH2 9197   5.563   1.649   1.650  0.0710 -0.6202 -0.4865
 2923TIP3    H1 9198   5.630   1.657   1.718  0.6246 -1.0513 -0.9736
 2923TIP3    H2 9199   5.482   1.673   1.694  0.0046 -3.4163  1.0107
 2924TIP3   OH2 9200   5.070   2.534   0.150  0.2743 -0.0674  0.0883
 2924TIP3    H1 9201   5.115   2.615   0.127  0.2016  0.1942  0.8287
 2924TIP3    H2 9202   4.977   2.555   0.143  0.2517 -0.7256 -1.8423
 2925TIP3   OH2 9203   5.606   4.832   1.275 -0.1130 -0.1797  0.5043
 2925TIP3    H1 9204   5.695   4.806   1.296  0.0562  1.3238  1.7289
 2925TIP3    H2 9205   5.612   4.870   1.187 -0.0876 -2.7026 -0.6354
 2926TIP3   OH2 9206   0.866   0.463   0.730 -0.7753  0.1899  0.5382
 2926TIP3    H1 9207   0.791   0.409   0.708 -0.3620 -0.2136  0.1064
 2926TIP3    H2 9208   0.831   0.552   0.733 -0.9277  0.2235 -1.4086
 2927TIP3   OH2 9209   0.669   3.076   1.348  0.4396 -0.1059  0.3213
 2927TIP3    H1 9210   0.585   3.120   1.358  0.9715  0.7815  0.9714
 2927TIP3    H2 9211   0.652   2.984   1.371 -0.4181  0.0038  0.1129
 2928TIP3   OH2 9212   2.130   2.869   3.711 -0.3853 -0.8279  0.5579
 2928TIP3    H1 9213   2.109   2.803   3.777 -1.8772  0.2943  1.2388
 2928TIP3    H2 9214   2.089   2.949   3.743  0.6796  0.2409 -0.6783
 2929TIP3   OH2 9215   0.803   3.071   2.702 -0.1477 -0.5885  0.1970
 2929TIP3    H1 9216   0.839   3.063   2.791 -0.7147 -0.1597  0.4651
 2929TIP3    H2 9217   0.867   3.124   2.655 -0.5750  0.4328  0.7571
 2930TIP3   OH2 9218   0.563   2.966   1.640  0.1031  0.4906  0.0241
 2930TIP3    H1 9219   0.523   3.049   1.612  0.8068  0.3941 -1.3112
 2930TIP3    H2 9220   0.543   2.905   1.569 -0.3613 -0.4640  0.9860
 2931TIP3   OH2 9221   0.977   3.154   1.628 -0.1540  0.6904  0.1464
 2931TIP3    H1 9222   0.935   3.082   1.675 -0.6748  1.1841  0.4421
 2931TIP3    H2 9223   1.068   3.125   1.616 -0.0996  0.4119  1.1564
 2932TIP3   OH2 9224   0.411   5.584   1.133  0.0964 -0.2634  0.5077
 2932TIP3    H1 9225   0.334   5.529   1.143 -0.9688  1.1550  0.2226
 2932TIP3    H2 9226   0.427   5.586   1.039 -1.3787  1.9346  0.2823
 2933TIP3   OH2 9227   4.112   2.610   2.173 -0.3621 -0.3450 -0.1113
 2933TIP3    H1 9228   4.183   2.597   2.109  0.2955 -1.3016  0.8027
 2933TIP3    H2 9229   4.153   2.661   2.243 -0.4804 -1.2117  0.5901
 2934TIP3   OH2 9230   5.013   2.223   3.665  0.0929 -0.5785  0.4043
 2934TIP3    H1 9231   5.012   2.273   3.584  0.7105  1.6266  1.6963
 2934TIP3    H2 9232   4.999   2.132   3.638 -2.6629  0.4483 -1.8805
 2935TIP3   OH2 9233   2.161   3.687   0.535 -0.2350  0.1529  0.1665
 2935TIP3    H1 9234   2.248   3.682   0.497  1.0624  0.9724  2.9195
 2935TIP3    H2 9235   2.113   3.614   0.495  1.4464  0.1930 -1.9772
 2936TIP3   OH2 9236   0.593   5.214   2.228  0.1095  0.3683  0.4343
 2936TIP3    H1 9237   0.510   5.228   2.182 -0.9805 -1.2490  1.8635
 2936TIP3    H2 9238   0.600   5.290   2.286 -0.5180  0.3769  0.5113
 2937TIP3   OH2 9239   2.598   2.492   3.100  0.7058  0.2292 -0.0241
 2937TIP3    H1 9240   2.504   2.503   3.085  0.7609 -0.2864 -0.8281
 2937TIP3    H2 9241   2.638   2.566   3.054  0.7667 -0.3303 -0.8922
 2938TIP3   OH2 9242   2.298   2.452   3.412 -0.0366 -0.0684  0.0667
 2938TIP3    H1 9243   2.370   2.515   3.413  0.0181 -0.0685 -2.2332
 2938TIP3    H2 9244   2.248   2.471   3.491  0.8675  1.8187  0.2061
 2939TIP3   OH2 9245   0.630   1.870   0.798  0.6436  0.3297  0.1776
 2939TIP3    H1 9246   0.661   1.888   0.710 -0.2033  1.0148  0.0173
 2939TIP3    H2 9247   0.605   1.777   0.796 -1.8000  0.9697 -1.0467
 2940TIP3   OH2 9248   1.152   1.912   2.871 -0.5739  0.0120  0.1807
 2940TIP3    H1 9249   1.088   1.845   2.845  0.1469 -0.3110 -0.7714
 2940TIP3    H2 9250   1.156   1.905   2.967 -1.4062 -0.4714  0.1882
 2941TIP3   OH2 9251   4.813   2.477   4.262  0.0780  0.8178  0.5118
 2941TIP3    H1 9252   4.724   2.482   4.227 -0.2511  1.2842  1.3891
 2941TIP3    H2 9253   4.836   2.568   4.281  0.0785  0.5528  1.8747
 2942TIP3   OH2 9254   1.093   5.807   2.478  0.6512  0.3578 -0.0904
 2942TIP3    H1 9255   1.114   5.718   2.506  2.4741  0.7272 -0.2063
 2942TIP3    H2 9256   1.173   5.838   2.436 -0.1566  1.8536 -0.5657
 2943TIP3   OH2 9257   2.914   3.277   3.951  0.3063  0.1369  0.2439
 2943TIP3    H1 9258   2.841   3.331   3.920  0.7007  0.6201  0.1426
 2943TIP3    H2 9259   2.942   3.229   3.873  0.6621  0.6116  0.0767
 2944TIP3   OH2 9260   5.218   0.897   1.590 -0.1644 -0.2975 -0.1096
 2944TIP3    H1 9261   5.170   0.973   1.558  1.4083 -0.4403 -3.0295
 2944TIP3    H2 9262   5.271   0.931   1.662 -0.0660  1.2011 -0.8690
 2945TIP3   OH2 9263   1.294   2.723   3.090 -0.2015 -0.2173  0.3810
 2945TIP3    H1 9264   1.324   2.749   3.003  0.1039 -0.2785  0.4695
 2945TIP3    H2 9265   1.198   2.725   3.083 -0.1804 -0.3920 -0.0075
 2946TIP3   OH2 9266   0.016   4.152   2.956 -0.0846 -0.5524 -0.1972
 2946TIP3    H1 9267   0.081   4.141   3.025 -1.4705 -0.3028  1.1790
 2946TIP3    H2 9268  -0.033   4.069   2.956  1.3368 -1.4529 -2.4453
 2947TIP3   OH2 9269   1.074   3.639   3.561 -0.3696  0.4289 -0.2306
 2947TIP3    H1 9270   1.155   3.688   3.547  1.1605 -2.2681 -1.2137
 2947TIP3    H2 9271   1.025   3.650   3.479  0.7998 -1.1906 -1.1529
 2948TIP3   OH2 9272   0.225   2.180   2.724 -0.4552  0.6106  0.3170
 2948TIP3    H1 9273   0.197   2.225   2.644  1.0159 -0.0310 -0.5770
 2948TIP3    H2 9274   0.315   2.152   2.706 -0.0798  0.5185  2.2283
 2949TIP3   OH2 9275   6.008   2.699   3.306 -0.0922  0.0700 -0.5720
 2949TIP3    H1 9276   5.943   2.701   3.377  0.3343  1.3062 -0.1882
 2949TIP3    H2 9277   5.987   2.776   3.253  2.0399  1.4522  0.4804
 2950TIP3   OH2 9278   5.987   4.569   3.784 -0.3750  0.2623 -0.8325
 2950TIP3    H1 9279   6.072   4.528   3.798 -0.0979  1.2398  0.4832
 2950TIP3    H2 9280   5.942   4.512   3.723 -0.2510 -2.3556  1.4374
 2951TIP3   OH2 9281   1.298   4.008   2.031 -0.0599  0.0625 -0.6052
 2951TIP3    H1 9282   1.370   3.950   2.056  1.5572  2.9449  1.7891
 2951TIP3    H2 9283   1.246   4.019   2.111 -2.1283 -0.4911 -1.8174
 2952TIP3   OH2 9284   2.271   2.768   1.006 -0.0577  0.1373 -0.0413
 2952TIP3    H1 9285   2.264   2.682   0.965 -0.0601  0.7459 -1.3680
 2952TIP3    H2 9286   2.317   2.753   1.088 -0.3182 -1.1692 -0.1367
 2953TIP3   OH2 9287   4.597   2.280   4.657 -0.0010 -0.0508 -0.0992
 2953TIP3    H1 9288   4.557   2.326   4.731  0.9630 -0.3545  0.6063
 2953TIP3    H2 9289   4.542   2.304   4.582 -1.2292 -0.0795  0.7816
 2954TIP3   OH2 9290   0.787   4.875   2.948 -0.4947  0.1201 -0.3602
 2954TIP3    H1 9291   0.794   4.966   2.976  0.6727 -0.7085  2.1712
 2954TIP3    H2 9292   0.866   4.833   2.981 -0.5345 -1.6208 -2.3530
 2955TIP3   OH2 9293   2.348   4.764   1.422  0.0309 -0.0929 -0.3475
 2955TIP3    H1 9294   2.338   4.718   1.505  1.2022 -1.0239 -0.7159
 2955TIP3    H2 9295   2.389   4.700   1.364 -1.3586  0.3335 -1.8448
 2956TIP3   OH2 9296   5.862   4.156   1.406  0.0049  0.0753 -0.1687
 2956TIP3    H1 9297   5.925   4.176   1.476 -1.7244  3.2801  0.5793
 2956TIP3    H2 9298   5.915   4.120   1.335  2.2745 -0.0039  1.5116
 2957TIP3   OH2 9299   5.954   4.782   5.949 -0.5163  1.0808  0.3160
 2957TIP3    H1 9300   5.895   4.717   5.911 -0.7649 -0.4411  3.1153
 2957TIP3    H2 9301   6.041   4.758   5.916 -0.5632 -0.9242  1.5029
 2958TIP3   OH2 9302   5.764   2.672   2.347 -0.0671 -0.4266 -0.3823
 2958TIP3    H1 9303   5.858   2.655   2.343 -0.1413 -0.9447  0.0329
 2958TIP3    H2 9304   5.752   2.752   2.296  0.9362  1.0151  1.6082
 2959TIP3   OH2 9305   2.766   3.928   2.794 -0.4758  0.4285  0.2388
 2959TIP3    H1 9306   2.766   4.005   2.851 -0.4028 -0.4059  1.3791
 2959TIP3    H2 9307   2.846   3.936   2.742 -0.4341  1.0758  0.3994
 2960TIP3   OH2 9308   1.762   1.805   3.845  0.6676  0.1315  1.0944
 2960TIP3    H1 9309   1.682   1.829   3.892  0.7823  0.7127  0.9963
 2960TIP3    H2 9310   1.786   1.883   3.796  1.6745  0.1828  1.6490
 2961TIP3   OH2 9311   0.617   4.014   2.106 -0.6926 -0.4441  0.1652
 2961TIP3    H1 9312   0.615   4.039   2.014 -0.1213  0.9209  0.5118
 2961TIP3    H2 9313   0.606   3.919   2.106  1.3583 -0.7034 -1.4189
 2962TIP3   OH2 9314   4.930   4.775   2.879  0.1846 -0.1179 -0.1060
 2962TIP3    H1 9315   4.924   4.784   2.975  0.9876 -0.8903  0.0307
 2962TIP3    H2 9316   4.907   4.861   2.845 -0.5462  0.0438  0.7670
 2963TIP3   OH2 9317   1.242   4.166   0.591 -0.4238 -0.0806 -0.0505
 2963TIP3    H1 9318   1.333   4.139   0.606 -0.0840  0.3223 -1.3206
 2963TIP3    H2 9319   1.248   4.233   0.523 -1.8369 -1.3044 -1.4060
 2964TIP3   OH2 9320   1.083   2.890   3.276  0.4040  0.5282 -0.0103
 2964TIP3    H1 9321   1.117   2.868   3.363 -1.1597  0.1991  0.5421
 2964TIP3    H2 9322   0.989   2.904   3.290  0.1272  0.4337 -1.6597
 2965TIP3   OH2 9323   5.104   5.802   3.103 -0.2553  0.4616 -0.2068
 2965TIP3    H1 9324   5.166   5.827   3.170 -0.8813 -1.1662  1.0083
 2965TIP3    H2 9325   5.071   5.716   3.131  0.6934 -1.0354 -3.4081
 2966TIP3   OH2 9326   6.026   0.053   0.273 -0.0616 -0.8075 -0.7358
 2966TIP3    H1 9327   5.978   0.058   0.190 -0.7867 -1.4649 -0.3582
 2966TIP3    H2 9328   6.051   0.144   0.291 -2.6356 -0.1704 -0.0858
 2967TIP3   OH2 9329   6.003   1.950   4.783 -0.5282  0.1155 -0.1721
 2967TIP3    H1 9330   6.006   1.936   4.878 -0.4759  0.0021 -0.1903
 2967TIP3    H2 9331   6.088   1.920   4.752 -0.7097 -0.2629 -0.3124
 2968TIP3   OH2 9332   5.418   3.411   4.202  0.3563 -0.2430  0.3270
 2968TIP3    H1 9333   5.507   3.376   4.208  0.0843 -1.2090 -0.9332
 2968TIP3    H2 9334   5.369   3.344   4.154 -0.4999  1.2875 -1.0162
 2969TIP3   OH2 9335   1.926   1.005   3.173 -0.0799  0.4996  0.5050
 2969TIP3    H1 9336   1.898   1.078   3.117 -0.9566 -0.0696  0.1852
 2969TIP3    H2 9337   1.846   0.978   3.218 -0.1309 -1.3369 -0.6285
 2970TIP3   OH2 9338   1.303   2.436   5.563  0.9167 -0.2730  0.4413
 2970TIP3    H1 9339   1.262   2.466   5.645 -2.8849 -0.3890 -1.3037
 2970TIP3    H2 9340   1.304   2.514   5.507  3.8193 -0.1122  0.6722
 2971TIP3   OH2 9341   1.020   2.648   2.580 -0.6774  0.7616  0.2206
 2971TIP3    H1 9342   1.015   2.573   2.521  1.2259  1.5501 -0.9890
 2971TIP3    H2 9343   1.062   2.613   2.659 -1.7866  0.0698  0.5126
 2972TIP3   OH2 9344   2.701   4.781   1.845 -0.1640  0.0075 -0.2606
 2972TIP3    H1 9345   2.774   4.761   1.904 -0.5461 -0.2168  0.1418
 2972TIP3    H2 9346   2.687   4.699   1.797  1.6147  0.8406 -2.2952
 2973TIP3   OH2 9347   4.797   2.317   5.124  0.1900  0.3831 -0.0784
 2973TIP3    H1 9348   4.838   2.308   5.210 -1.1275 -0.0003  0.5370
 2973TIP3    H2 9349   4.711   2.276   5.135 -0.0249  0.4213 -1.5578
 2974TIP3   OH2 9350   3.924   2.823   2.074 -0.0655  0.3350 -0.6846
 2974TIP3    H1 9351   3.999   2.782   2.119 -0.4681 -1.2831 -1.4317
 2974TIP3    H2 9352   3.872   2.748   2.043 -1.1546  1.4497 -1.5619
 2975TIP3   OH2 9353   1.542   3.592   3.944  0.4920  0.4934 -0.4586
 2975TIP3    H1 9354   1.531   3.543   3.863 -1.5227 -0.9666  0.6882
 2975TIP3    H2 9355   1.496   3.541   4.010  1.2839  2.1722  1.4302
 2976TIP3   OH2 9356   5.617   5.886   4.184  0.0221  0.2828 -0.4006
 2976TIP3    H1 9357   5.597   5.879   4.277  0.6808 -0.7324 -0.3201
 2976TIP3    H2 9358   5.532   5.877   4.141 -0.0683 -1.2441  0.0408
 2977TIP3   OH2 9359   0.773   3.268   3.892  0.0912  0.2135 -0.2828
 2977TIP3    H1 9360   0.780   3.179   3.857 -0.2584 -0.6232  1.6965
 2977TIP3    H2 9361   0.863   3.289   3.919 -0.2593 -0.5595  1.5845
 2978TIP3   OH2 9362   1.712   5.234   1.430  0.0852  0.0168  0.1263
 2978TIP3    H1 9363   1.776   5.198   1.492  0.1411  0.4714  0.3354
 2978TIP3    H2 9364   1.705   5.168   1.362  1.0282  0.1067 -0.0663
 2979TIP3   OH2 9365   0.540   3.070   3.151  0.1439 -0.0610  0.0729
 2979TIP3    H1 9366   0.584   3.095   3.232  1.7539 -0.9143 -0.5190
 2979TIP3    H2 9367   0.517   2.978   3.164 -0.1655 -0.0253 -0.2032
 2980TIP3   OH2 9368   0.975   3.178   3.556  0.2974  0.5175  0.0367
 2980TIP3    H1 9369   0.897   3.194   3.609  0.3886 -1.5407  0.8210
 2980TIP3    H2 9370   1.047   3.172   3.619  0.6941 -0.1667 -0.4713
 2981TIP3   OH2 9371   3.277   2.846   3.652 -0.0343  0.1149  0.0081
 2981TIP3    H1 9372   3.299   2.881   3.739  2.0494  0.3170 -0.5788
 2981TIP3    H2 9373   3.245   2.921   3.603  0.7530  0.4302 -0.0319
 2982TIP3   OH2 9374   0.634   2.813   3.454 -0.0063 -0.3616  0.0020
 2982TIP3    H1 9375   0.553   2.814   3.403  0.3540 -1.1752 -0.6109
 2982TIP3    H2 9376   0.609   2.779   3.540 -0.3890 -0.1973 -0.0442
 2983TIP3   OH2 9377   5.899   0.763   5.668  0.1991 -0.3172  0.2696
 2983TIP3    H1 9378   5.935   0.847   5.695  0.3259 -0.6129  1.0417
 2983TIP3    H2 9379   5.932   0.701   5.733 -0.5924 -0.8208  0.1978
 2984TIP3   OH2 9380   5.524   0.376   2.708 -0.1645 -0.4272  0.0600
 2984TIP3    H1 9381   5.463   0.420   2.767 -0.0763  0.8020 -0.7573
 2984TIP3    H2 9382   5.596   0.348   2.765 -0.3742  0.2025  0.6429
 2985TIP3   OH2 9383   0.461   1.646   2.718  0.2113 -0.0517  0.4075
 2985TIP3    H1 9384   0.438   1.564   2.762  1.8184 -0.6312  0.2210
 2985TIP3    H2 9385   0.482   1.706   2.789  0.5410 -0.2767  0.5006
 2986TIP3   OH2 9386   6.065   3.484   1.874  0.4612  0.3638 -0.3961
 2986TIP3    H1 9387   6.012   3.547   1.826 -2.4678 -1.5843  0.1634
 2986TIP3    H2 9388   6.082   3.526   1.958 -0.9806  0.6652 -0.2450
 2987TIP3   OH2 9389   0.173   3.393   2.203  0.3750  0.3099 -0.0223
 2987TIP3    H1 9390   0.157   3.299   2.194 -1.0197  0.4461  0.7849
 2987TIP3    H2 9391   0.161   3.410   2.297  3.2719  0.8415  0.3055
 2988TIP3   OH2 9392   5.786   2.199   3.336 -0.4183 -1.0608 -0.6455
 2988TIP3    H1 9393   5.754   2.213   3.247 -0.9137 -0.2513 -0.3529
 2988TIP3    H2 9394   5.860   2.260   3.345 -2.8557  1.8580  0.7811
 2989TIP3   OH2 9395   1.513   2.304   2.423 -0.3199 -0.4373  0.0552
 2989TIP3    H1 9396   1.484   2.281   2.335  2.9111  2.1777 -1.7906
 2989TIP3    H2 9397   1.458   2.378   2.448 -1.3008 -1.2386  0.3429
 2990TIP3   OH2 9398   1.508   3.098   0.429 -1.0309 -0.8004  0.5538
 2990TIP3    H1 9399   1.511   3.029   0.363 -0.5708  0.0603 -0.3522
 2990TIP3    H2 9400   1.491   3.053   0.511 -0.4454 -2.0138  0.0174
 2991TIP3   OH2 9401   5.694   5.944   0.742 -0.3752  0.0657 -0.6064
 2991TIP3    H1 9402   5.637   6.009   0.783 -0.7303  0.4275 -1.6632
 2991TIP3    H2 9403   5.738   5.991   0.672  0.0477 -0.6148 -0.8034
 2992TIP3   OH2 9404   5.131   3.379   4.259 -0.4997 -0.2690  0.2177
 2992TIP3    H1 9405   5.227   3.372   4.264 -0.5584  0.1847  2.3027
 2992TIP3    H2 9406   5.100   3.345   4.343 -1.9145  4.1167  1.5924
 2993TIP3   OH2 9407   0.265   5.895   1.422 -0.0526  0.3483 -0.6004
 2993TIP3    H1 9408   0.273   5.851   1.506  0.4564  1.5604  0.0040
 2993TIP3    H2 9409   0.348   5.876   1.377 -0.8412 -1.3648 -1.3670
 2994TIP3   OH2 9410   0.295   3.702   3.149  0.3847  0.0868 -0.3944
 2994TIP3    H1 9411   0.267   3.768   3.212 -0.0180 -1.7709  1.4216
 2994TIP3    H2 9412   0.242   3.625   3.169  0.7215 -0.7716 -2.5747
 2995TIP3   OH2 9413   4.815   1.695   4.179  0.1681  0.2904 -0.3621
 2995TIP3    H1 9414   4.825   1.609   4.138 -3.7561 -0.0828 -0.7154
 2995TIP3    H2 9415   4.796   1.675   4.271  0.3739  0.8102 -0.2043
 2996TIP3   OH2 9416   1.611   2.702   3.477  0.4558 -0.2534 -0.6479
 2996TIP3    H1 9417   1.560   2.771   3.520  0.5705 -0.9014  0.5487
 2996TIP3    H2 9418   1.622   2.733   3.387 -0.1440  0.9334 -0.3246
 2997TIP3   OH2 9419   5.255   3.266   3.580  0.4738  0.9211 -0.3201
 2997TIP3    H1 9420   5.342   3.245   3.613  0.0269 -1.1925 -0.3629
 2997TIP3    H2 9421   5.269   3.286   3.487  0.9249  0.6900 -0.3043
 2998TIP3   OH2 9422   2.442   0.374   1.934 -0.1814 -0.4628 -0.1934
 2998TIP3    H1 9423   2.424   0.306   1.870  0.9122 -1.4275  0.4955
 2998TIP3    H2 9424   2.379   0.359   2.004  1.2055 -1.9159  0.7888
 2999TIP3   OH2 9425   5.888   1.638   0.095  0.1101 -0.0802  0.9496
 2999TIP3    H1 9426   5.975   1.678   0.091  0.2490 -0.4005  0.7836
 2999TIP3    H2 9427   5.861   1.631   0.004  0.0428 -0.2786  0.9854
 3000TIP3   OH2 9428   3.393   1.186   3.615 -0.3221 -0.1937 -0.0363
 3000TIP3    H1 9429   3.421   1.157   3.528  1.3944 -0.8685  0.7201
 3000TIP3    H2 9430   3.337   1.116   3.647  0.4723 -0.7593  0.1149
 3001TIP3   OH2 9431   1.532   1.340   2.652 -0.0652 -0.2447  0.9189
 3001TIP3    H1 9432   1.562   1.254   2.623 -0.4823 -0.3408  0.7630
 3001TIP3    H2 9433   1.462   1.362   2.591  1.0059  0.8488  0.0792
 3002TIP3   OH2 9434   0.292   3.663   2.870 -0.2172 -0.3247  0.5907
 3002TIP3    H1 9435   0.211   3.712   2.858 -1.3120 -2.0382  0.9700
 3002TIP3    H2 9436   0.309   3.667   2.964  1.1402  1.5699  0.3049
 3003TIP3   OH2 9437   6.093   3.808   0.947 -0.6388 -0.2519 -0.1968
 3003TIP3    H1 9438   6.112   3.728   0.897 -0.7647 -0.3792 -0.0422
 3003TIP3    H2 9439   6.028   3.854   0.895  0.4407  0.4213 -0.9734
 3004TIP3   OH2 9440   1.338   3.156   4.271  0.3591  0.0364 -0.7380
 3004TIP3    H1 9441   1.245   3.167   4.253 -0.1563 -0.7733  1.3112
 3004TIP3    H2 9442   1.355   3.210   4.348  1.7716  0.8433 -1.6006
 3005TIP3   OH2 9443   1.886   1.377   3.542 -0.0440 -0.3438 -0.4601
 3005TIP3    H1 9444   1.962   1.354   3.596  0.7394  1.9001 -0.5208
 3005TIP3    H2 9445   1.811   1.354   3.596  0.7039 -0.8551  0.3842
 3006TIP3   OH2 9446   5.278   1.440   3.372  0.0454  0.1048  0.1334
 3006TIP3    H1 9447   5.358   1.399   3.340 -1.6160 -2.0752 -1.3393
 3006TIP3    H2 9448   5.275   1.525   3.329  1.2156 -0.0958 -0.3542
 3007TIP3   OH2 9449   0.676   1.550   4.637 -0.4124 -0.8601 -0.1730
 3007TIP3    H1 9450   0.746   1.595   4.590 -1.1696 -2.3070 -2.8306
 3007TIP3    H2 9451   0.598   1.604   4.621 -0.9930 -2.1662 -2.0234
 3008TIP3   OH2 9452   0.025   1.997   2.568 -0.2557  0.0954 -0.1368
 3008TIP3    H1 9453   0.036   2.091   2.578  0.3393  0.0341 -0.2190
 3008TIP3    H2 9454  -0.046   1.988   2.504  0.5089  0.4917 -1.0394
 3009TIP3   OH2 9455   0.636   3.461   3.165 -0.3349 -0.5690  0.2563
 3009TIP3    H1 9456   0.708   3.400   3.156  0.1396 -0.0227  0.3399
 3009TIP3    H2 9457   0.571   3.414   3.218 -0.2542 -1.2389 -0.2406
 3010TIP3   OH2 9458   1.148   1.564   5.204 -0.2906 -0.5925 -0.1890
 3010TIP3    H1 9459   1.055   1.543   5.214 -0.2331 -0.4245  0.6611
 3010TIP3    H2 9460   1.194   1.482   5.223 -0.1029  0.0993  2.4700
 3011TIP3   OH2 9461   2.012   5.998   2.710 -0.0417  0.4531  0.2510
 3011TIP3    H1 9462   1.979   6.050   2.637 -1.7303 -0.5505  0.2779
 3011TIP3    H2 9463   1.986   6.047   2.788  0.1772  0.6083  0.2269
 3012TIP3   OH2 9464   0.665   1.427   1.121 -0.3572  0.7665 -0.4009
 3012TIP3    H1 9465   0.689   1.519   1.111 -0.5404  0.8630  0.0183
 3012TIP3    H2 9466   0.616   1.424   1.203 -0.7839  0.3804 -0.6670
 3013TIP3   OH2 9467   0.158   1.021   4.929  0.1181  0.1347  0.7417
 3013TIP3    H1 9468   0.236   0.979   4.965 -1.4149 -2.0650  1.6456
 3013TIP3    H2 9469   0.179   1.038   4.837  1.3396 -1.2555  0.7622
 3014TIP3   OH2 9470   0.692   3.802   2.476  0.8049  0.4704  0.4719
 3014TIP3    H1 9471   0.627   3.873   2.471  0.8478  0.4118 -1.4373
 3014TIP3    H2 9472   0.666   3.751   2.552 -2.1301 -0.2251 -0.9249
 3015TIP3   OH2 9473   0.878   4.022   2.193 -0.1233 -0.1061  0.3127
 3015TIP3    H1 9474   0.872   3.949   2.255 -0.3406  0.9430  1.5489
 3015TIP3    H2 9475   0.787   4.038   2.166 -0.0485 -0.4450 -0.1473
 3016TIP3   OH2 9476   0.828   1.941   3.771  0.1268  0.1469 -0.7691
 3016TIP3    H1 9477   0.771   2.012   3.741 -0.1483  1.1701  2.0254
 3016TIP3    H2 9478   0.894   1.984   3.825  1.4595 -1.4409 -1.0896
 3017TIP3   OH2 9479   1.172   3.201   3.739  0.2655 -0.6357 -0.0468
 3017TIP3    H1 9480   1.225   3.261   3.792  0.5450 -0.2726 -0.7273
 3017TIP3    H2 9481   1.116   3.157   3.802 -0.1286  0.5282  0.4434
 3018TIP3   OH2 9482   0.792   1.118   2.796 -0.5276 -0.5850  0.8982
 3018TIP3    H1 9483   0.704   1.132   2.763 -0.3931  0.5443  0.9989
 3018TIP3    H2 9484   0.787   1.141   2.889  0.3663  1.6480  0.4349
 3019TIP3   OH2 9485   1.186   2.974   1.845 -0.0603  0.7991  0.2161
 3019TIP3    H1 9486   1.227   3.038   1.787 -0.0287 -0.0573 -0.7136
 3019TIP3    H2 9487   1.146   3.026   1.914  0.6082  1.7771 -0.1307
 3020TIP3   OH2 9488   1.936   2.626   2.930 -0.0892 -0.0399 -0.1929
 3020TIP3    H1 9489   2.029   2.631   2.906  0.5397 -0.4759  1.9684
 3020TIP3    H2 9490   1.934   2.566   3.005 -2.1139 -0.0189 -0.2048
 3021TIP3   OH2 9491   1.487   5.022   2.633 -0.4975  0.0159  0.3606
 3021TIP3    H1 9492   1.540   5.013   2.553 -0.7122  0.5771  0.1543
 3021TIP3    H2 9493   1.551   5.040   2.702 -0.1382 -2.1422  0.6284
 3022TIP3   OH2 9494   0.239   1.594   0.676 -0.4215  0.2232  0.0485
 3022TIP3    H1 9495   0.271   1.669   0.626  0.9241  0.6714  1.5332
 3022TIP3    H2 9496   0.144   1.607   0.682 -0.5358  0.4241 -1.9099
 3023TIP3   OH2 9497   6.083   4.117   2.183 -0.2071  0.1628 -0.0745
 3023TIP3    H1 9498   6.086   4.050   2.115 -3.3027  0.1518 -0.2856
 3023TIP3    H2 9499   6.079   4.067   2.265 -1.0628  0.0769 -0.1585
 3024TIP3   OH2 9500   0.310   4.046   5.919 -0.0546 -0.1816 -0.0458
 3024TIP3    H1 9501   0.394   4.016   5.886 -0.6318 -2.2524  0.3339
 3024TIP3    H2 9502   0.263   4.078   5.842  0.6327 -0.1054 -0.4295
 3025TIP3   OH2 9503   5.482   2.854   2.056 -0.4772 -0.5723  0.2394
 3025TIP3    H1 9504   5.389   2.852   2.031 -0.7706  0.9926  1.1238
 3025TIP3    H2 9505   5.506   2.762   2.066 -2.0507 -0.9901  0.3691
 3026TIP3   OH2 9506   1.437   2.124   4.205 -0.4972 -0.0675  0.3084
 3026TIP3    H1 9507   1.495   2.103   4.131  0.7516  0.2895  1.1710
 3026TIP3    H2 9508   1.419   2.040   4.246 -0.3568 -0.1501  0.2016
 3027TIP3   OH2 9509   0.201   5.047   1.691 -0.7546  0.2932  0.4700
 3027TIP3    H1 9510   0.133   5.022   1.629 -0.2652  0.2298 -0.0525
 3027TIP3    H2 9511   0.278   4.997   1.663 -0.1457  1.3368  0.2606
 3028TIP3   OH2 9512   0.760   4.053   3.637 -0.4675  0.1163 -0.1235
 3028TIP3    H1 9513   0.842   4.099   3.616  0.3881 -1.8289 -1.1496
 3028TIP3    H2 9514   0.785   3.988   3.702 -1.1668 -0.6077 -0.5789
 3029TIP3   OH2 9515   1.812   3.652   1.341 -0.4116 -0.6253  0.0849
 3029TIP3    H1 9516   1.719   3.631   1.345 -0.0203 -2.3502  0.4657
 3029TIP3    H2 9517   1.827   3.713   1.413 -1.2091 -0.4682  0.1133
 3030TIP3   OH2 9518   5.451   2.031   4.864  0.3176  0.4928  0.0049
 3030TIP3    H1 9519   5.420   1.941   4.869  1.1033  0.2045 -0.3588
 3030TIP3    H2 9520   5.375   2.080   4.831 -0.8386  0.3597  2.3243
 3031TIP3   OH2 9521   5.909   4.481   2.022  0.4389  0.3147  0.2976
 3031TIP3    H1 9522   5.947   4.518   1.943 -0.8694  2.7330  0.7504
 3031TIP3    H2 9523   5.982   4.476   2.084  0.9802  0.5388 -0.3250
 3032TIP3   OH2 9524   1.117   1.977   4.440 -0.1217 -0.1102 -0.1364
 3032TIP3    H1 9525   1.108   1.975   4.535  1.9800 -1.4059  0.0584
 3032TIP3    H2 9526   1.208   2.000   4.424  0.0560 -1.7692 -1.7932
 3033TIP3   OH2 9527   5.906   1.990   3.519  0.5042 -0.2906  0.5828
 3033TIP3    H1 9528   5.974   2.011   3.455  0.5291 -0.1802  0.6460
 3033TIP3    H2 9529   5.825   2.016   3.476  0.5799  0.4647  0.8805
 3034TIP3   OH2 9530   0.925   3.170   1.354 -0.1284  0.2622  0.6077
 3034TIP3    H1 9531   0.957   3.145   1.441 -0.9280 -0.3980  0.7146
 3034TIP3    H2 9532   0.834   3.142   1.353  0.7764 -2.9374 -1.7087
 3035TIP3   OH2 9533   0.758   2.536   2.267  0.4914  0.4787  0.2375
 3035TIP3    H1 9534   0.786   2.459   2.217 -0.0432 -0.2180  0.9878
 3035TIP3    H2 9535   0.730   2.599   2.201  1.3245  0.1833 -0.4043
 3036TIP3   OH2 9536   0.389   2.872   2.765  0.1484  0.2071 -0.0593
 3036TIP3    H1 9537   0.356   2.904   2.680 -0.4093 -1.8014 -0.6172
 3036TIP3    H2 9538   0.476   2.839   2.746  1.1975  2.4018  0.7570
 3037TIP3   OH2 9539   5.400   0.872   6.065  0.0847 -0.0830  0.7905
 3037TIP3    H1 9540   5.363   0.784   6.071 -0.6055  0.3160  2.6000
 3037TIP3    H2 9541   5.442   0.887   6.149  0.6679  1.1149  0.3036
 3038TIP3   OH2 9542   0.902   1.481   3.345  0.4428  0.4625  0.1769
 3038TIP3    H1 9543   0.951   1.425   3.285  1.2946 -0.5363  1.7454
 3038TIP3    H2 9544   0.935   1.457   3.432 -1.9203  0.6899  1.1815
 3039TIP3   OH2 9545   0.221   2.244   4.317  0.5395 -0.5967 -0.2544
 3039TIP3    H1 9546   0.307   2.281   4.338  0.4328 -0.6649  0.3036
 3039TIP3    H2 9547   0.182   2.307   4.256 -0.0795  0.7587  1.5037
 3040TIP3   OH2 9548   0.021   3.285   0.244  0.4113  0.4494  0.3716
 3040TIP3    H1 9549  -0.021   3.342   0.180  0.1346  0.7350  0.8014
 3040TIP3    H2 9550  -0.048   3.225   0.272  0.5874  0.1862  0.2433
 3041TIP3   OH2 9551   4.868   3.135   3.811 -0.1204  0.0283  0.6202
 3041TIP3    H1 9552   4.829   3.104   3.729  1.8827  1.2800 -0.8286
 3041TIP3    H2 9553   4.795   3.134   3.874 -1.7832 -0.5233 -1.2696
 3042TIP3   OH2 9554   0.084   4.390   1.853 -0.2107  0.1979  0.3453
 3042TIP3    H1 9555   0.139   4.323   1.813 -0.4742  0.8516 -1.1376
 3042TIP3    H2 9556   0.113   4.472   1.813 -0.2891  0.9143  1.7126
 3043TIP3   OH2 9557   1.120   2.644   0.970  0.0565  0.2087 -0.5419
 3043TIP3    H1 9558   1.093   2.719   0.918 -1.1720  0.3469  0.2761
 3043TIP3    H2 9559   1.039   2.608   1.005  0.8371 -0.0908  1.0047
 3044TIP3   OH2 9560   1.863   1.587   3.285  0.0614  0.5884  0.1045
 3044TIP3    H1 9561   1.889   1.495   3.292 -0.8977  0.0148 -3.1053
 3044TIP3    H2 9562   1.946   1.636   3.290  0.9574 -0.6925 -1.7809
 3045TIP3   OH2 9563   1.430   3.771   1.744 -0.0717 -0.0003 -0.2100
 3045TIP3    H1 9564   1.479   3.844   1.708  0.2751  0.3220  0.8786
 3045TIP3    H2 9565   1.409   3.798   1.833  1.7778 -1.9928  0.8929
 3046TIP3   OH2 9566   0.845   2.065   5.380 -0.1061 -0.3657 -0.4855
 3046TIP3    H1 9567   0.808   1.993   5.330 -1.3933  0.1236 -0.2680
 3046TIP3    H2 9568   0.844   2.139   5.319 -1.9896  0.3176  0.3342
 3047TIP3   OH2 9569   5.207   0.753   2.027 -0.0721  0.4530  0.8689
 3047TIP3    H1 9570   5.153   0.700   1.968  1.2159  0.1351 -0.0341
 3047TIP3    H2 9571   5.166   0.740   2.113 -0.7340 -0.7391  0.3970
 3048TIP3   OH2 9572   1.406   3.196   3.591  0.2602  0.0802 -0.0988
 3048TIP3    H1 9573   1.317   3.178   3.622  0.6298 -2.0531 -0.1713
 3048TIP3    H2 9574   1.396   3.266   3.527 -0.9404  2.2251  2.3431
 3049TIP3   OH2 9575   5.706   2.078   4.324 -0.1813  0.4778 -0.0364
 3049TIP3    H1 9576   5.765   2.045   4.391 -1.1251 -0.7523  0.2064
 3049TIP3    H2 9577   5.763   2.127   4.264  1.0471 -0.4993  0.3100
 3050TIP3   OH2 9578   0.955   3.903   2.470  0.0751 -0.3180  0.5784
 3050TIP3    H1 9579   0.873   3.854   2.474  0.4321 -0.9211  0.5165
 3050TIP3    H2 9580   1.021   3.838   2.447  0.4253  0.3422 -0.3241
 3051TIP3   OH2 9581   0.321   3.366   3.306  0.3809  0.5239 -0.7435
 3051TIP3    H1 9582   0.257   3.426   3.269 -0.6041  0.4180  0.7353
 3051TIP3    H2 9583   0.279   3.280   3.302  1.0055  0.2310 -1.0787
 3052TIP3   OH2 9584   1.696   4.040   0.042  0.6683 -0.1225  0.3277
 3052TIP3    H1 9585   1.643   3.965   0.070  1.5299 -0.8815 -0.0722
 3052TIP3    H2 9586   1.713   4.024  -0.051  2.7191 -0.5587  0.7634
 3053TIP3   OH2 9587   2.151   2.525   2.211  0.0871  0.3892  0.4145
 3053TIP3    H1 9588   2.237   2.495   2.179  1.2295  1.6888  2.1858
 3053TIP3    H2 9589   2.100   2.445   2.220  1.3970 -0.4976  0.1883
 3054TIP3   OH2 9590   0.151   5.979   2.574 -0.2692 -0.4873  0.4332
 3054TIP3    H1 9591   0.242   5.955   2.593  0.2487 -0.1852 -1.5798
 3054TIP3    H2 9592   0.115   6.004   2.659  1.3455 -1.1900  1.3546
 3055TIP3   OH2 9593   3.178   2.982   2.115  0.3401  0.0098 -0.0550
 3055TIP3    H1 9594   3.244   2.950   2.054 -0.0830  1.2559 -1.1906
 3055TIP3    H2 9595   3.164   3.073   2.089  0.9107  0.8732  2.5523
 3056TIP3   OH2 9596   4.226   2.355   0.321  0.7341  0.1085 -0.0341
 3056TIP3    H1 9597   4.255   2.263   0.314  0.6366  0.0521  0.3436
 3056TIP3    H2 9598   4.174   2.369   0.242 -0.9375 -0.7585  0.9060
 3057TIP3   OH2 9599   0.103   4.614   1.675  0.1190  0.7303  0.8375
 3057TIP3    H1 9600   0.057   4.697   1.678  2.2999  1.9508  1.2804
 3057TIP3    H2 9601   0.141   4.610   1.587  1.8148  1.2109  1.5348
 3058TIP3   OH2 9602   2.514   4.598   6.046 -0.0773 -0.1658  0.1956
 3058TIP3    H1 9603   2.579   4.626   5.982 -1.9974  0.9658 -1.2896
 3058TIP3    H2 9604   2.496   4.507   6.024 -0.0941 -0.0375 -0.3129
 3059TIP3   OH2 9605   1.311   1.041   2.214 -0.1315 -0.2395  0.0442
 3059TIP3    H1 9606   1.263   1.111   2.259  0.5184  0.6119 -0.5710
 3059TIP3    H2 9607   1.264   1.030   2.131 -0.6581 -1.0422  0.4311
 3060TIP3   OH2 9608   1.342   1.915   0.952  0.3146 -0.3888 -0.0314
 3060TIP3    H1 9609   1.333   1.984   0.887  0.2141 -1.4890 -1.1948
 3060TIP3    H2 9610   1.391   1.846   0.907 -1.2264 -1.8636  0.4931
 3061TIP3   OH2 9611   1.053   3.728   2.079 -0.5067 -0.2560 -0.1756
 3061TIP3    H1 9612   0.987   3.703   2.145  0.1264 -1.8806 -0.1185
 3061TIP3    H2 9613   1.052   3.656   2.017  0.5611  0.1558 -0.6781
 3062TIP3   OH2 9614   0.336   3.594   5.758  0.3442  0.5738  0.3621
 3062TIP3    H1 9615   0.369   3.592   5.669 -3.5401  0.9964 -1.2070
 3062TIP3    H2 9616   0.329   3.687   5.779  4.1262  0.5088  2.3621
 3063TIP3   OH2 9617   4.528   1.617   0.492  0.1021  0.0999  0.1418
 3063TIP3    H1 9618   4.605   1.669   0.467  2.1620 -2.9825 -0.2589
 3063TIP3    H2 9619   4.537   1.605   0.586 -0.8991  1.2688  0.3918
 3064TIP3   OH2 9620   1.319   1.699   6.011  0.6716  0.5419 -0.0639
 3064TIP3    H1 9621   1.242   1.685   6.066  0.0915 -2.1943 -1.4469
 3064TIP3    H2 9622   1.284   1.735   5.929  1.0046  0.3983 -0.2727
 3065TIP3   OH2 9623   5.592   1.316   4.191 -0.3457 -0.0673  0.2488
 3065TIP3    H1 9624   5.617   1.402   4.225  1.0521 -0.2262 -0.3451
 3065TIP3    H2 9625   5.651   1.254   4.235  0.7405 -0.3871 -1.5991
 3066TIP3   OH2 9626   5.757   2.291   2.448  0.0676  0.3390  0.3452
 3066TIP3    H1 9627   5.698   2.237   2.501  0.6222 -0.7244 -0.1097
 3066TIP3    H2 9628   5.826   2.317   2.509  0.5674 -0.6682  0.2186
 3067TIP3   OH2 9629   5.846   1.898   4.500  0.7518 -0.3145  0.5377
 3067TIP3    H1 9630   5.916   1.865   4.557  0.6649 -0.4820  0.5476
 3067TIP3    H2 9631   5.767   1.896   4.554  0.7501 -0.0712  0.5451
 3068TIP3   OH2 9632   1.493   2.114   3.097 -0.7060 -0.0575 -0.4207
 3068TIP3    H1 9633   1.420   2.062   3.063 -1.9732  1.0395  0.5384
 3068TIP3    H2 9634   1.451   2.185   3.146  0.9744  1.8796 -1.7102
 3069TIP3   OH2 9635   0.494   2.740   3.693 -0.2423 -0.3287 -0.0087
 3069TIP3    H1 9636   0.434   2.667   3.679 -0.2284 -0.4859  0.7755
 3069TIP3    H2 9637   0.488   2.759   3.786  0.7551 -0.1891  0.0283
 3070TIP3   OH2 9638   0.844   3.716   4.208 -0.0626  0.3152 -0.4104
 3070TIP3    H1 9639   0.813   3.675   4.288 -0.2501  0.0438 -0.6197
 3070TIP3    H2 9640   0.840   3.646   4.142  1.5923  0.1015 -0.2962
 3071TIP3   OH2 9641   1.644   3.205   4.207 -0.0150  0.3234  0.2138
 3071TIP3    H1 9642   1.579   3.164   4.150  0.1371  0.0631  0.2267
 3071TIP3    H2 9643   1.598   3.279   4.247 -0.1591  0.4267 -0.1480
 3072TIP3   OH2 9644   0.635   2.977   2.489 -0.6061  0.0021  0.2703
 3072TIP3    H1 9645   0.685   2.897   2.477 -0.7012 -0.0156 -0.0100
 3072TIP3    H2 9646   0.677   3.021   2.563 -0.8075 -0.5017  0.6827
 3073TIP3   OH2 9647   1.906   1.184   2.795 -0.1689  0.7936 -0.2163
 3073TIP3    H1 9648   1.819   1.167   2.830 -0.1360  0.3511 -0.3459
 3073TIP3    H2 9649   1.916   1.279   2.801 -0.9675  0.9328 -0.9279
 3074TIP3   OH2 9650   2.068   1.790   3.407 -0.6164  0.0648  0.3731
 3074TIP3    H1 9651   2.126   1.714   3.406  0.3488  0.7650 -2.0529
 3074TIP3    H2 9652   2.030   1.791   3.495  1.1905 -1.8158  1.2094
 3075TIP3   OH2 9653   1.530   1.056   4.478  0.0586  0.1713 -0.1026
 3075TIP3    H1 9654   1.485   1.023   4.556  1.2346  0.5829  0.7712
 3075TIP3    H2 9655   1.586   0.984   4.450 -0.7523 -0.1668 -0.9022
 3076TIP3   OH2 9656   2.848   2.406   1.964 -0.3657 -0.0716  0.3102
 3076TIP3    H1 9657   2.826   2.486   1.915  1.1037  0.6568  0.7901
 3076TIP3    H2 9658   2.944   2.402   1.959 -0.2180 -0.2247  2.7665
 3077TIP3   OH2 9659   1.396   5.793   2.092 -0.2408 -0.6284 -0.0900
 3077TIP3    H1 9660   1.447   5.838   2.024  0.6058  0.3213  1.1674
 3077TIP3    H2 9661   1.445   5.807   2.172 -0.1369 -3.5437  0.3966
 3078TIP3   OH2 9662   5.600   2.877   5.393  0.0914 -0.5943 -0.3631
 3078TIP3    H1 9663   5.693   2.885   5.414  0.3092  0.3080 -1.6241
 3078TIP3    H2 9664   5.597   2.815   5.320 -0.1225  0.7402 -1.5041
 3079TIP3   OH2 9665   1.274   3.639   1.223 -0.4019  0.5988  0.3706
 3079TIP3    H1 9666   1.352   3.628   1.277  0.5842 -1.7015 -1.4853
 3079TIP3    H2 9667   1.214   3.570   1.252 -0.3089  0.0671 -0.6788
 3080TIP3   OH2 9668   0.941   4.325   1.894 -0.3908  0.6969  0.2526
 3080TIP3    H1 9669   1.029   4.323   1.931 -0.1226  0.9320 -0.3662
 3080TIP3    H2 9670   0.905   4.239   1.915  0.4447  0.1284 -0.5829
 3081TIP3   OH2 9671   0.996   2.539   3.647 -0.4141 -0.3254  0.0043
 3081TIP3    H1 9672   0.904   2.532   3.671 -0.6236  1.2598 -0.2432
 3081TIP3    H2 9673   1.018   2.454   3.610 -1.7566 -0.7477  0.1525
 3082TIP3   OH2 9674   0.178   4.589   2.696  0.1832 -0.0580  0.1681
 3082TIP3    H1 9675   0.105   4.530   2.715  0.5628 -1.0866 -1.4142
 3082TIP3    H2 9676   0.169   4.608   2.603  1.2162  0.8217  0.2418
 3083TIP3   OH2 9677   1.867   2.093   4.300  0.5365 -0.3943  0.7146
 3083TIP3    H1 9678   1.935   2.039   4.341  3.5446  2.5914 -0.0453
 3083TIP3    H2 9679   1.911   2.176   4.282 -3.5671  1.9392  0.8048
 3084TIP3   OH2 9680   4.625   3.348   3.642 -0.1013  0.2259  0.2458
 3084TIP3    H1 9681   4.640   3.254   3.650  0.0738  0.3305  1.1611
 3084TIP3    H2 9682   4.710   3.388   3.664 -0.0288  0.5793 -0.6504
 3085TIP3   OH2 9683   2.018   1.978   3.012  0.2543  0.3024 -0.7510
 3085TIP3    H1 9684   2.035   1.884   3.019 -0.2805  0.1624 -1.3165
 3085TIP3    H2 9685   1.929   1.984   2.978  0.0064  1.0245  0.0115
 3086TIP3   OH2 9686   0.517   2.143   2.680  0.0498  0.9234  0.1864
 3086TIP3    H1 9687   0.540   2.228   2.717 -0.3365  1.4926 -0.8504
 3086TIP3    H2 9688   0.593   2.117   2.628  1.1969 -0.5678  2.4858
 3087TIP3   OH2 9689   6.078   4.405   2.239 -0.0746 -0.6426 -0.5568
 3087TIP3    H1 9690   6.159   4.455   2.231  0.1185 -1.0151 -0.8893
 3087TIP3    H2 9691   6.105   4.313   2.241 -0.3047 -0.7114  1.4856
 3088TIP3   OH2 9692   3.029   4.781   4.004  0.0992 -0.5130  0.6004
 3088TIP3    H1 9693   3.033   4.692   3.969  1.0046  0.2165 -1.2246
 3088TIP3    H2 9694   2.998   4.834   3.931 -2.7123  0.3586  2.3520
 3089TIP3   OH2 9695   5.641   1.962   2.759 -0.4735 -0.5593  0.3524
 3089TIP3    H1 9696   5.602   2.038   2.717 -1.5824 -0.4440  1.5560
 3089TIP3    H2 9697   5.735   1.980   2.759 -0.7746  1.1346  1.2141
 3090TIP3   OH2 9698   0.096   1.189   1.712 -0.0185  0.1023 -0.1531
 3090TIP3    H1 9699   0.112   1.259   1.775  0.5394 -0.1332 -0.0302
 3090TIP3    H2 9700   0.013   1.212   1.670  0.0519  0.7156  0.0469
 3091TIP3   OH2 9701   2.150   3.875   2.818  0.4749 -0.2404  0.5951
 3091TIP3    H1 9702   2.148   3.964   2.851 -0.8211  0.2019 -0.6390
 3091TIP3    H2 9703   2.114   3.822   2.890 -1.0883  0.5421  0.4018
 3092TIP3   OH2 9704   0.065   3.140   3.862  0.2064 -0.3398 -0.5252
 3092TIP3    H1 9705   0.028   3.184   3.785  0.7959 -0.1728 -0.7126
 3092TIP3    H2 9706   0.122   3.205   3.902  0.1956 -0.5555 -0.1597
 3093TIP3   OH2 9707   0.864   1.342   5.040 -0.4524  0.4544  0.2537
 3093TIP3    H1 9708   0.890   1.300   5.122 -1.8870 -2.2363 -0.6152
 3093TIP3    H2 9709   0.946   1.369   5.000  0.3341  0.8185  2.0336
 3094TIP3   OH2 9710   0.893   1.661   4.538  0.1617  0.2101 -0.0968
 3094TIP3    H1 9711   0.961   1.595   4.550 -0.7008 -0.8944 -1.1402
 3094TIP3    H2 9712   0.913   1.700   4.453  0.0032  0.4963 -0.0022
 3095TIP3   OH2 9713   5.756   2.830   0.220 -0.3697 -0.3687 -0.4043
 3095TIP3    H1 9714   5.710   2.829   0.136  0.0757 -0.9237 -0.6426
 3095TIP3    H2 9715   5.776   2.738   0.238 -0.4720 -0.2549  0.3152
 3096TIP3   OH2 9716   0.534   4.114   1.080 -1.0801  0.0052  0.4750
 3096TIP3    H1 9717   0.628   4.126   1.095 -1.0459 -0.2300  0.4573
 3096TIP3    H2 9718   0.517   4.157   0.996 -0.6173 -1.6102 -0.4634
 3097TIP3   OH2 9719   3.132   3.341   4.310 -0.1998  0.3009  0.2247
 3097TIP3    H1 9720   3.220   3.338   4.346 -0.5362  0.3195  1.0673
 3097TIP3    H2 9721   3.142   3.313   4.219  0.3663 -1.7724  0.8903
 3098TIP3   OH2 9722   3.797   4.838   4.126  0.3181  1.2090  0.1311
 3098TIP3    H1 9723   3.835   4.795   4.050 -0.7752 -2.7536  1.7050
 3098TIP3    H2 9724   3.871   4.883   4.167  2.3881 -2.2812  0.4288
 3099TIP3   OH2 9725   5.569   1.891   5.090  0.0388 -0.5987  0.1327
 3099TIP3    H1 9726   5.504   1.853   5.031 -0.2901 -0.1141  0.1827
 3099TIP3    H2 9727   5.613   1.957   5.037 -0.1570 -0.2645  0.3809
 3100TIP3   OH2 9728   1.455   3.276   2.696 -0.2042  0.0707 -0.1473
 3100TIP3    H1 9729   1.383   3.284   2.633 -1.3067 -1.8575  0.8215
 3100TIP3    H2 9730   1.493   3.191   2.677  3.9183  2.3364 -2.7573
 3101TIP3   OH2 9731   5.152   2.067   1.620  0.3942 -0.5164 -0.9641
 3101TIP3    H1 9732   5.074   2.046   1.672  1.9221 -1.3775  1.0216
 3101TIP3    H2 9733   5.201   1.985   1.617  2.8747  0.8586  0.7016
 3102TIP3   OH2 9734   5.775   4.008   0.221  0.1860  0.1237 -0.1339
 3102TIP3    H1 9735   5.807   3.975   0.137  1.0332  0.4203  0.0673
 3102TIP3    H2 9736   5.680   4.015   0.210  0.2602 -0.1332 -0.9586
 3103TIP3   OH2 9737   2.860   5.139   5.614 -0.1774  0.2164  0.5354
 3103TIP3    H1 9738   2.904   5.207   5.665 -0.4406  1.6129 -1.0498
 3103TIP3    H2 9739   2.820   5.082   5.679  1.1946  0.8186  1.9250
 3104TIP3   OH2 9740   1.644   1.758   2.618 -0.1410 -0.0293  0.1053
 3104TIP3    H1 9741   1.602   1.754   2.704 -1.0694  0.9670 -0.2803
 3104TIP3    H2 9742   1.571   1.762   2.556  0.4793 -2.4452 -0.8580
 3105TIP3   OH2 9743   0.334   2.931   0.091  0.4007 -0.5543  0.0735
 3105TIP3    H1 9744   0.392   2.877   0.145 -1.3193 -2.8658 -0.3380
 3105TIP3    H2 9745   0.246   2.902   0.114 -0.4836  0.7765 -1.5450
 3106TIP3   OH2 9746   1.638   4.197   3.190  0.3841  0.4804  0.0393
 3106TIP3    H1 9747   1.610   4.237   3.272  0.9892  2.4355 -0.6720
 3106TIP3    H2 9748   1.558   4.186   3.139  0.0994 -0.0679  0.6020
 3107TIP3   OH2 9749   0.811   4.478   1.185 -0.1579  0.0932  0.4134
 3107TIP3    H1 9750   0.839   4.415   1.251  0.9550 -0.1722 -0.2825
 3107TIP3    H2 9751   0.793   4.559   1.234 -1.3382 -0.6840  1.2744
 3108TIP3   OH2 9752   5.473   1.585   4.859  0.3004  0.5726 -0.1224
 3108TIP3    H1 9753   5.440   1.499   4.888  0.1002  0.7707  0.2466
 3108TIP3    H2 9754   5.468   1.582   4.764 -0.6474  0.5387 -0.0810
 3109TIP3   OH2 9755   1.872   3.497   5.342  0.1269  0.2429 -0.0363
 3109TIP3    H1 9756   1.786   3.459   5.360  0.2320 -0.7224 -1.4515
 3109TIP3    H2 9757   1.853   3.584   5.308 -0.3426 -0.2897 -1.1688
 3110TIP3   OH2 9758   2.007   4.517   5.081 -0.1973 -0.0547  0.2985
 3110TIP3    H1 9759   2.075   4.497   5.016 -2.0016  0.6166 -1.8772
 3110TIP3    H2 9760   2.020   4.609   5.102 -0.2694  0.0142  0.0524
 3111TIP3   OH2 9761   1.411   1.178   2.878 -0.2500 -0.6134 -0.1233
 3111TIP3    H1 9762   1.422   1.262   2.835 -0.9507 -0.0258  0.7963
 3111TIP3    H2 9763   1.365   1.123   2.814 -3.6207  1.0570  0.7243
 3112TIP3   OH2 9764   3.240   2.972   2.397  0.4277  0.5543  0.3767
 3112TIP3    H1 9765   3.245   2.960   2.302 -1.3133 -1.3277  0.4860
 3112TIP3    H2 9766   3.147   2.974   2.416  0.7616  2.0442  1.9333
 3113TIP3   OH2 9767   0.637   5.116   4.828 -0.7331 -0.6810 -0.5879
 3113TIP3    H1 9768   0.711   5.054   4.826 -0.7896 -0.6842 -4.0273
 3113TIP3    H2 9769   0.574   5.074   4.887  1.3488 -1.3891  1.2405
 3114TIP3   OH2 9770   1.795   4.863   2.595 -0.3969  0.0060 -0.1941
 3114TIP3    H1 9771   1.853   4.929   2.631 -0.7424 -0.6330  1.6006
 3114TIP3    H2 9772   1.738   4.911   2.535 -0.2759  1.2255  0.6494
 3115TIP3   OH2 9773   2.457   5.772   3.126 -0.1651  0.0338  0.0835
 3115TIP3    H1 9774   2.526   5.833   3.151  0.8128 -0.6826 -0.7934
 3115TIP3    H2 9775   2.440   5.791   3.033 -1.8963  0.9079  0.5472
 3116TIP3   OH2 9776   0.398   2.731   4.367 -0.2514 -0.5198 -0.3247
 3116TIP3    H1 9777   0.379   2.687   4.284  1.1292 -1.6663 -0.0738
 3116TIP3    H2 9778   0.317   2.776   4.390 -0.4522  0.3405 -2.6093
 3117TIP3   OH2 9779   5.870   3.779   2.138 -0.0644 -0.0898 -0.0934
 3117TIP3    H1 9780   5.872   3.774   2.234 -0.6590  2.4054  0.0954
 3117TIP3    H2 9781   5.826   3.862   2.120  0.6105 -0.2359 -2.5298
 3118TIP3   OH2 9782   1.051   2.519   3.200 -0.0198 -0.7301  0.4905
 3118TIP3    H1 9783   1.107   2.548   3.271  0.7133  2.0996 -1.1625
 3118TIP3    H2 9784   0.981   2.584   3.196  0.7059 -0.0310 -2.2077
 3119TIP3   OH2 9785   1.943   3.796   1.096  0.4917 -0.4380 -0.0516
 3119TIP3    H1 9786   2.032   3.792   1.062  0.6516 -0.5943  0.3759
 3119TIP3    H2 9787   1.953   3.777   1.190  0.1366  0.6269  0.2075
 3120TIP3   OH2 9788   3.091   1.687   3.886 -0.0016 -0.0972  0.5932
 3120TIP3    H1 9789   3.047   1.715   3.806 -1.1346 -1.7698  0.6091
 3120TIP3    H2 9790   3.184   1.697   3.868 -0.2392 -0.6742 -1.0168
 3121TIP3   OH2 9791   2.267   0.082   0.962 -0.1645 -0.1409  0.2905
 3121TIP3    H1 9792   2.198   0.021   0.935 -0.6328  0.1906  0.7227
 3121TIP3    H2 9793   2.220   0.161   0.988  0.2314 -0.6205  2.5527
 3122TIP3   OH2 9794   1.722   3.209   5.693  0.0379 -0.0114  0.3892
 3122TIP3    H1 9795   1.785   3.201   5.764  1.2777 -1.3506 -0.8378
 3122TIP3    H2 9796   1.717   3.303   5.676  2.8387  0.0352 -0.4784
 3123TIP3   OH2 9797   0.570   3.878   3.924 -0.0824  0.1735 -0.0512
 3123TIP3    H1 9798   0.596   3.804   3.869  0.0427 -0.0218  0.2713
 3123TIP3    H2 9799   0.490   3.848   3.968 -0.5644  0.5747 -0.6296
 3124TIP3   OH2 9800   4.878   4.712   0.115  0.4793 -0.1563  0.2633
 3124TIP3    H1 9801   4.883   4.712   0.020 -0.2765 -0.8580  0.2202
 3124TIP3    H2 9802   4.789   4.684   0.135 -0.1839  2.4265  1.1435
 3125TIP3   OH2 9803   0.601   3.178   2.855  0.5883  0.2488 -0.5455
 3125TIP3    H1 9804   0.640   3.113   2.797  0.6148  0.4448 -0.7486
 3125TIP3    H2 9805   0.585   3.131   2.937 -0.5365 -0.3406 -1.0917
 3126TIP3   OH2 9806   1.155   0.773   2.833 -0.3826  0.3279  0.3346
 3126TIP3    H1 9807   1.094   0.829   2.880 -1.5274 -1.9352  1.6209
 3126TIP3    H2 9808   1.147   0.801   2.742 -0.0089  3.0424  1.0761
 3127TIP3   OH2 9809   1.617   1.730   4.338 -0.1885 -0.1285  0.1596
 3127TIP3    H1 9810   1.563   1.666   4.292 -0.3715  1.7555 -2.3220
 3127TIP3    H2 9811   1.669   1.771   4.270  1.3335  1.0437  1.9797
 3128TIP3   OH2 9812   5.847   3.303   2.204 -0.1106 -0.3218  0.1053
 3128TIP3    H1 9813   5.942   3.296   2.218 -0.2675 -0.7999  0.9486
 3128TIP3    H2 9814   5.837   3.381   2.150  0.9075 -1.2031 -1.3898
 3129TIP3   OH2 9815   5.831   1.412   1.925 -0.0699 -0.3927 -0.2041
 3129TIP3    H1 9816   5.825   1.468   2.003  0.6855 -0.2855 -0.2136
 3129TIP3    H2 9817   5.905   1.354   1.943 -0.9162 -1.4652 -0.1550
 3130TIP3   OH2 9818   4.132   1.722   2.095  0.2748  0.5477 -0.0793
 3130TIP3    H1 9819   4.199   1.762   2.039  0.3577  0.0929 -0.3037
 3130TIP3    H2 9820   4.180   1.692   2.171  0.5428 -0.9553 -0.8250
 3131TIP3   OH2 9821   1.330   3.396   5.007  0.2318 -0.5231 -0.3452
 3131TIP3    H1 9822   1.418   3.378   4.976  0.3594  2.4047 -1.8978
 3131TIP3    H2 9823   1.318   3.338   5.082  2.9180 -2.0018 -1.0078
 3132TIP3   OH2 9824   1.028   4.619   0.455 -0.0736  0.7335 -0.4366
 3132TIP3    H1 9825   1.074   4.535   0.459 -2.4362 -0.5395  1.0146
 3132TIP3    H2 9826   1.065   4.671   0.526 -1.2086 -0.4822  1.0718
 3133TIP3   OH2 9827   0.932   3.469   2.919 -0.0257 -0.1174  0.2157
 3133TIP3    H1 9828   0.938   3.543   2.980 -0.8096 -0.5173  0.7837
 3133TIP3    H2 9829   1.019   3.463   2.880  0.3595  0.4098  0.9856
 3134TIP3   OH2 9830   5.867   1.577   2.225  0.1713  0.5340  0.2441
 3134TIP3    H1 9831   5.959   1.591   2.246  0.7300 -1.0116 -1.0433
 3134TIP3    H2 9832   5.832   1.664   2.208  1.8766  0.9683 -1.1498
 3135TIP3   OH2 9833   5.446   5.002   1.498 -0.7860 -0.0990 -0.6989
 3135TIP3    H1 9834   5.534   4.972   1.475 -1.2979 -2.2958  0.0551
 3135TIP3    H2 9835   5.411   5.040   1.418  0.6318  0.2556 -1.1538
 3136TIP3   OH2 9836   0.533   0.391   3.860 -0.2016  0.3843 -0.2797
 3136TIP3    H1 9837   0.484   0.403   3.941  1.7828  0.2991  0.9893
 3136TIP3    H2 9838   0.600   0.460   3.862  1.7859 -1.4638 -0.3065
 3137TIP3   OH2 9839   1.361   1.673   4.577 -0.3142 -0.2337 -0.0338
 3137TIP3    H1 9840   1.322   1.746   4.624 -0.3672  0.8744 -1.7690
 3137TIP3    H2 9841   1.396   1.616   4.646 -0.4960  1.2780  1.3291
 3138TIP3   OH2 9842   2.622   2.803   2.700 -0.4821 -0.1132 -0.4372
 3138TIP3    H1 9843   2.681   2.769   2.633  0.6264  0.5586  0.1858
 3138TIP3    H2 9844   2.610   2.895   2.677  0.4461  0.2932  0.6677
 3139TIP3   OH2 9845   4.288   2.205   1.563  0.6521 -0.3734 -0.0457
 3139TIP3    H1 9846   4.300   2.132   1.501  1.9020 -0.1015 -0.1376
 3139TIP3    H2 9847   4.199   2.193   1.597 -0.0599 -0.5529 -1.8662
 3140TIP3   OH2 9848   3.750   5.158   2.182 -0.4605  0.4327  0.3198
 3140TIP3    H1 9849   3.795   5.241   2.169 -1.5462  1.3647  2.2727
 3140TIP3    H2 9850   3.812   5.103   2.230  1.1258 -0.7628 -2.9066
 3141TIP3   OH2 9851   1.445   4.512   1.827 -0.3733 -0.3555  0.0918
 3141TIP3    H1 9852   1.367   4.516   1.771  1.0760  1.7603 -1.8849
 3141TIP3    H2 9853   1.417   4.552   1.910 -1.6710 -0.5441 -0.2535
 3142TIP3   OH2 9854   4.338   4.737   3.457  0.1547 -0.3323  0.6644
 3142TIP3    H1 9855   4.417   4.686   3.479 -0.9463 -1.4703  2.0491
 3142TIP3    H2 9856   4.360   4.780   3.374  1.2989 -2.6929 -0.3079
 3143TIP3   OH2 9857   3.402   4.304   4.547 -0.1419 -0.0205 -0.6388
 3143TIP3    H1 9858   3.329   4.263   4.593 -0.9545  0.3155 -1.6128
 3143TIP3    H2 9859   3.392   4.277   4.456  0.5969  0.5290 -0.8949
 3144TIP3   OH2 9860   2.771   2.330   2.976  0.2467 -0.4160  0.0788
 3144TIP3    H1 9861   2.701   2.371   3.027  0.2441 -1.0235  0.5780
 3144TIP3    H2 9862   2.808   2.401   2.923 -0.3418  0.0337  0.2663
 3145TIP3   OH2 9863   1.402   3.396   3.419 -0.7376 -0.4495 -0.2359
 3145TIP3    H1 9864   1.432   3.486   3.433 -2.0227  0.0443 -0.5888
 3145TIP3    H2 9865   1.357   3.398   3.335 -1.3553 -1.2725  0.0661
 3146TIP3   OH2 9866   2.044   3.430   2.062 -0.3310 -0.6538 -0.3119
 3146TIP3    H1 9867   2.014   3.357   2.008  1.0985 -1.7578  0.3462
 3146TIP3    H2 9868   2.017   3.408   2.150 -0.9555  0.2068 -0.2834
 3147TIP3   OH2 9869   1.656   0.371   3.262 -0.2036  0.3432  0.2720
 3147TIP3    H1 9870   1.675   0.422   3.341 -1.4774  0.0926  0.7507
 3147TIP3    H2 9871   1.742   0.353   3.224  0.8326 -3.5258  4.0802
 3148TIP3   OH2 9872   2.135   1.462   0.345 -0.0997  0.3091  0.3492
 3148TIP3    H1 9873   2.191   1.502   0.278 -0.4794  1.2675  0.5992
 3148TIP3    H2 9874   2.060   1.428   0.297 -0.7617  1.6999  0.3617
 3149TIP3   OH2 9875   2.959   2.328   1.610  0.4346  0.3112 -0.1123
 3149TIP3    H1 9876   2.895   2.388   1.647 -2.1420 -1.9596 -0.6750
 3149TIP3    H2 9877   2.961   2.350   1.517 -2.2448 -1.8209 -0.7681
 3150TIP3   OH2 9878   3.725   3.475   4.117 -0.2627  0.1026 -0.5223
 3150TIP3    H1 9879   3.701   3.508   4.204 -0.8769  0.4729 -0.8291
 3150TIP3    H2 9880   3.660   3.409   4.097  1.3282 -1.7802  0.3513
 3151TIP3   OH2 9881   1.601   3.468   5.422  0.5411 -0.2383 -0.0008
 3151TIP3    H1 9882   1.518   3.422   5.437 -0.5905  1.6046 -0.5769
 3151TIP3    H2 9883   1.644   3.466   5.508  0.0041 -1.3533  0.2612
 3152TIP3   OH2 9884   2.510   3.454   3.314 -0.0862  0.4949 -0.0284
 3152TIP3    H1 9885   2.461   3.382   3.273 -0.0727  1.2932 -1.4855
 3152TIP3    H2 9886   2.451   3.487   3.383 -0.0551 -0.9539  0.7073
 3153TIP3   OH2 9887   2.822   3.171   2.874  0.2981  0.1423 -0.2665
 3153TIP3    H1 9888   2.761   3.101   2.898 -0.8838  1.1450 -0.2805
 3153TIP3    H2 9889   2.779   3.251   2.905 -0.6639  1.3969 -4.5022
 3154TIP3   OH2 9890   3.690   3.180   3.478  0.1672 -0.2130  0.3786
 3154TIP3    H1 9891   3.748   3.196   3.404  0.8919 -0.0652  0.9675
 3154TIP3    H2 9892   3.632   3.110   3.449  2.9351 -2.8787  1.0180
 3155TIP3   OH2 9893   2.984   3.367   1.799 -0.3285  0.2424 -0.3706
 3155TIP3    H1 9894   2.986   3.459   1.773 -0.7276 -0.0977 -1.6556
 3155TIP3    H2 9895   2.956   3.320   1.720 -0.6822 -0.9251  0.4266
 3156TIP3   OH2 9896   1.842   2.050   1.515 -0.4602 -0.6296  0.2630
 3156TIP3    H1 9897   1.877   2.134   1.484 -1.0548 -0.6827 -0.5690
 3156TIP3    H2 9898   1.848   2.056   1.610  1.1527 -0.3560  0.1623
 3157TIP3   OH2 9899   4.514   1.490   3.759 -0.3738  0.6475  0.5092
 3157TIP3    H1 9900   4.430   1.474   3.717 -0.6579  1.0702  0.9166
 3157TIP3    H2 9901   4.523   1.419   3.823 -0.0238  0.1061 -0.1443
 3158TIP3   OH2 9902   3.364   4.707   1.467 -0.2227  0.2334 -0.2347
 3158TIP3    H1 9903   3.448   4.683   1.429 -0.3611 -1.4653  0.4909
 3158TIP3    H2 9904   3.382   4.785   1.520  0.8622 -0.0341 -0.2087
 3159TIP3   OH2 9905   1.577   1.010   2.399 -0.7723 -0.8566  0.2470
 3159TIP3    H1 9906   1.506   1.034   2.340 -0.3845 -0.1468  0.0663
 3159TIP3    H2 9907   1.647   1.071   2.378 -0.2094 -1.3766  0.6205
 3160TIP3   OH2 9908   4.177   2.581   2.928 -0.0998 -0.2665  0.6200
 3160TIP3    H1 9909   4.238   2.508   2.933  0.1269 -0.1683 -0.5502
 3160TIP3    H2 9910   4.232   2.658   2.912 -0.7036 -0.6426 -3.9808
 3161TIP3   OH2 9911   3.128   4.173   2.367  0.2066 -0.2396  0.1903
 3161TIP3    H1 9912   3.189   4.219   2.424  1.3416  0.9324 -1.9035
 3161TIP3    H2 9913   3.042   4.188   2.407  1.1034 -0.6722  2.3587
 3162TIP3   OH2 9914   3.066   3.659   2.274  0.2619 -0.2727 -0.0245
 3162TIP3    H1 9915   3.031   3.715   2.343  0.7573  0.3623 -0.2868
 3162TIP3    H2 9916   2.997   3.594   2.258 -0.2645  0.1934  0.3540
 3163TIP3   OH2 9917   2.527   4.243   3.159  0.6333  0.2435 -0.2097
 3163TIP3    H1 9918   2.496   4.241   3.069  0.0307 -0.2494  0.0048
 3163TIP3    H2 9919   2.540   4.151   3.182 -1.5301  0.1989  0.9829
 3164TIP3   OH2 9920   2.744   3.916   2.281 -0.3889  0.1579  0.0135
 3164TIP3    H1 9921   2.704   3.872   2.357  1.5615  1.8595  2.0963
 3164TIP3    H2 9922   2.836   3.892   2.286  0.4676  3.3239  0.4264
 3165TIP3   OH2 9923   0.816   0.999   4.458 -0.4514 -0.3967  0.2003
 3165TIP3    H1 9924   0.827   1.082   4.413 -1.7074 -0.5037 -0.3233
 3165TIP3    H2 9925   0.778   0.941   4.392  0.3348 -1.3659  0.5809
 3166TIP3   OH2 9926   4.808   3.363   0.873 -0.7192 -0.5398 -0.3215
 3166TIP3    H1 9927   4.767   3.424   0.935 -0.6769 -0.2862 -0.5403
 3166TIP3    H2 9928   4.767   3.279   0.891 -0.3628 -0.5714  0.3863
 3167TIP3   OH2 9929   2.354   1.246   2.641  0.7245  0.1089 -0.4874
 3167TIP3    H1 9930   2.286   1.251   2.708  1.5600 -2.5329  0.6205
 3167TIP3    H2 9931   2.319   1.184   2.577  1.2750  0.2164 -0.8922
 3168TIP3   OH2 9932   1.539   0.963   1.419 -0.4036 -0.4559 -0.0118
 3168TIP3    H1 9933   1.534   0.881   1.468 -1.6207  0.3360  1.1966
 3168TIP3    H2 9934   1.476   0.952   1.347 -1.6038 -0.0635  0.9559
 3169TIP3   OH2 9935   2.321   2.532   3.137  0.2724 -0.1232 -0.2497
 3169TIP3    H1 9936   2.236   2.566   3.112 -0.1564 -1.9156 -1.2824
 3169TIP3    H2 9937   2.308   2.499   3.226 -0.4724 -1.6340 -0.9150
 3170TIP3   OH2 9938   2.015   1.408   3.136  0.0501  0.5274  0.1565
 3170TIP3    H1 9939   2.079   1.350   3.095 -1.3077 -0.2521 -0.8818
 3170TIP3    H2 9940   1.932   1.362   3.129 -0.9644  2.3484 -0.2114
 3171TIP3   OH2 9941   1.766   4.257   4.217  0.0973 -0.0540  0.2001
 3171TIP3    H1 9942   1.720   4.279   4.298 -0.2509 -0.1150  0.0181
 3171TIP3    H2 9943   1.839   4.202   4.245  0.4774  0.6347  0.5660
 3172TIP3   OH2 9944   3.323   2.220   4.020 -0.2613  0.0376  0.0224
 3172TIP3    H1 9945   3.344   2.149   4.080  1.0392  1.0802  0.8549
 3172TIP3    H2 9946   3.251   2.267   4.063 -1.1245 -0.7786 -0.5318
 3173TIP3   OH2 9947   0.779   1.530   3.847  0.2160  0.6438  0.1383
 3173TIP3    H1 9948   0.724   1.571   3.779 -3.3672 -0.5843  2.1430
 3173TIP3    H2 9949   0.724   1.530   3.925  2.7288 -1.6740  1.9965
 3174TIP3   OH2 9950   5.743   3.437   2.696  0.3939  0.8445 -0.7793
 3174TIP3    H1 9951   5.738   3.354   2.743 -0.2730  0.6676 -1.1529
 3174TIP3    H2 9952   5.685   3.426   2.621  0.5271  1.5457 -0.9927
 3175TIP3   OH2 9953   4.532   2.909   4.183  0.5945  0.1403  0.0313
 3175TIP3    H1 9954   4.584   2.990   4.183  2.2117 -0.8671  0.6554
 3175TIP3    H2 9955   4.597   2.839   4.195 -0.7070 -1.3032 -1.1546
 3176TIP3   OH2 9956   2.094   1.242   1.626  0.0795 -0.5307 -0.8014
 3176TIP3    H1 9957   2.073   1.302   1.554 -3.2857  0.3132  0.8164
 3176TIP3    H2 9958   2.127   1.298   1.696 -0.6433 -0.8603 -0.1925
 3177TIP3   OH2 9959   3.460   3.017   3.402 -0.4946  0.0206  0.1448
 3177TIP3    H1 9960   3.435   3.070   3.326  0.4306  0.5487  0.2031
 3177TIP3    H2 9961   3.391   3.032   3.466  0.1553  1.7608  0.4579
 3178TIP3   OH2 9962   3.421   3.793   2.827  0.3220 -0.0333  0.0890
 3178TIP3    H1 9963   3.379   3.708   2.820  1.1755 -0.5115  0.6741
 3178TIP3    H2 9964   3.492   3.790   2.763  1.3120 -0.3457  1.1846
 3179TIP3   OH2 9965   3.917   2.951   5.290 -0.1874 -0.0775 -0.6742
 3179TIP3    H1 9966   3.863   2.916   5.220 -0.3059  0.1209 -0.6801
 3179TIP3    H2 9967   3.954   3.031   5.254  2.4140 -1.6832 -1.7300
 3180TIP3   OH2 9968   2.824   5.126   4.860  0.1785  0.0200 -0.3570
 3180TIP3    H1 9969   2.826   5.203   4.917  0.1574  0.5589 -1.0750
 3180TIP3    H2 9970   2.916   5.102   4.850  0.0987 -0.8575  0.9425
 3181TIP3   OH2 9971   4.465   1.736   3.387 -0.5244  0.4209 -0.0179
 3181TIP3    H1 9972   4.493   1.754   3.298 -0.2838  1.4215  0.2571
 3181TIP3    H2 9973   4.469   1.640   3.395  0.3629  0.3930 -0.7756
 3182TIP3   OH2 9974   4.360   3.789   3.206  0.0418 -0.0185  0.1043
 3182TIP3    H1 9975   4.391   3.779   3.116  1.9228 -0.3380  0.7514
 3182TIP3    H2 9976   4.383   3.706   3.248 -1.5937 -0.1949  0.6689
 3183TIP3   OH2 9977   1.855   3.499   3.515 -0.1266 -0.4023  0.4514
 3183TIP3    H1 9978   1.775   3.449   3.533 -0.3849 -0.2789 -0.3414
 3183TIP3    H2 9979   1.908   3.440   3.461 -0.9779  0.6442 -1.5660
 3184TIP3   OH2 9980   2.429   3.422   2.101 -0.0674 -0.1304  0.3543
 3184TIP3    H1 9981   2.396   3.498   2.052 -0.8782 -1.1134 -0.6571
 3184TIP3    H2 9982   2.358   3.402   2.164  1.4586  1.8551  2.8069
 3185TIP3   OH2 9983   1.713   2.616   1.305  0.1299  0.0499 -0.1174
 3185TIP3    H1 9984   1.804   2.594   1.326  0.1187 -0.0397 -0.1628
 3185TIP3    H2 9985   1.666   2.605   1.387 -0.5828 -3.7896 -0.9170
 3186TIP3   OH2 9986   1.056   3.175   2.573  0.0097 -0.0914 -0.2532
 3186TIP3    H1 9987   1.047   3.189   2.479 -0.5094  0.1858 -0.1590
 3186TIP3    H2 9988   1.073   3.081   2.581  2.1619  0.2214 -0.7732
 3187TIP3   OH2 9989   3.692   3.042   0.998 -0.1323 -0.5392  0.1203
 3187TIP3    H1 9990   3.715   3.045   0.905 -1.1415  0.7902 -0.1057
 3187TIP3    H2 9991   3.661   2.953   1.013 -0.1326 -0.7084 -0.8623
 3188TIP3   OH2 9992   5.085   3.574   5.562  0.2790 -0.2217  0.5203
 3188TIP3    H1 9993   5.051   3.504   5.618  2.2648 -0.2926  1.7270
 3188TIP3    H2 9994   5.173   3.544   5.539  0.2531  0.7918 -0.9365
 3189TIP3   OH2 9995   4.377   3.195   0.896  0.2316  0.2578  0.1123
 3189TIP3    H1 9996   4.422   3.242   0.967 -0.1757 -0.0094  0.5543
 3189TIP3    H2 9997   4.433   3.208   0.820  1.1633 -0.2243  0.7029
 3190TIP3   OH2 9998   2.506   3.319   3.970 -0.2929  0.2576 -0.5373
 3190TIP3    H1 9999   2.453   3.280   4.039  0.6859 -0.3909 -0.1439
 3190TIP3    H210000   2.507   3.412   3.989 -2.1732  0.4198 -1.1525
 3191TIP3   OH210001   4.724   3.895   1.830 -0.4104 -0.3568 -0.3438
 3191TIP3    H110002   4.669   3.832   1.783  0.4002  0.0296 -1.8456
 3191TIP3    H210003   4.673   3.977   1.827 -0.5476 -0.4342 -0.1694
 3192TIP3   OH210004   1.809   3.331   1.569 -0.1262  0.8805  0.0840
 3192TIP3    H110005   1.862   3.252   1.560 -1.0884 -0.1041  2.5560
 3192TIP3    H210006   1.777   3.349   1.481  2.4687  0.2176 -1.0473
 3193TIP3   OH210007   1.635   3.574   1.656  0.2955  0.2939 -0.4181
 3193TIP3    H110008   1.643   3.651   1.713  1.0865  1.8669 -2.5694
 3193TIP3    H210009   1.723   3.536   1.654  0.3913  0.5329 -0.9535
 3194TIP3   OH210010   2.285   4.867   1.145 -0.1680  0.0153  0.3452
 3194TIP3    H110011   2.335   4.863   1.226  1.3616 -0.3781 -0.5932
 3194TIP3    H210012   2.315   4.791   1.095  0.3884  1.3627 -1.4094
 3195TIP3   OH210013   1.571   2.851   1.773  0.5371  0.1771 -0.2432
 3195TIP3    H110014   1.514   2.886   1.841  0.5037  0.2659 -0.3167
 3195TIP3    H210015   1.578   2.758   1.793  2.0579  0.5243  1.0039
 3196TIP3   OH210016   0.803   4.308   2.469  0.7391  0.5561  0.5369
 3196TIP3    H110017   0.740   4.241   2.444  1.2808  0.5312 -0.7602
 3196TIP3    H210018   0.758   4.391   2.451  0.3290  0.5634  1.5088
 3197TIP3   OH210019   2.082   2.279   1.964 -0.0804 -0.2993 -0.0858
 3197TIP3    H110020   2.070   2.241   2.051  1.8056 -0.3306  0.1873
 3197TIP3    H210021   2.157   2.338   1.974 -0.4155  0.3865 -1.4798
 3198TIP3   OH210022   2.719   2.656   2.901 -0.1563  0.7915 -0.2709
 3198TIP3    H110023   2.813   2.671   2.893 -0.1925  0.4486 -1.4297
 3198TIP3    H210024   2.679   2.717   2.839 -0.6535  0.4344 -0.3089
 3199TIP3   OH210025   2.232   0.672   0.545 -0.2279 -0.0373  0.2625
 3199TIP3    H110026   2.313   0.628   0.517 -0.3504 -0.0490 -0.0731
 3199TIP3    H210027   2.171   0.659   0.473  0.1206  1.7338 -0.3847
 3200TIP3   OH210028   6.028   0.253   5.765  0.2845 -0.1978  0.0609
 3200TIP3    H110029   6.078   0.206   5.831  0.4584 -0.0451  0.0387
 3200TIP3    H210030   6.092   0.308   5.720  0.0573  0.1725  0.1879
 3201TIP3   OH210031   3.667   2.752   2.298  0.1490  1.0049  0.3651
 3201TIP3    H110032   3.755   2.766   2.331  0.5466  0.2432 -0.3394
 3201TIP3    H210033   3.675   2.677   2.239 -1.2056  0.0981  1.2865
 3202TIP3   OH210034   4.049   2.126   2.693  0.0283 -0.0305 -0.8023
 3202TIP3    H110035   4.141   2.112   2.713 -0.0862  2.2901  1.7416
 3202TIP3    H210036   4.004   2.051   2.731  0.6704  0.0375  0.1187
 3203TIP3   OH210037   2.026   1.005   3.881 -0.1271  0.5888 -0.0174
 3203TIP3    H110038   2.018   0.960   3.797 -0.5545  0.4846  0.0734
 3203TIP3    H210039   1.955   1.070   3.880  0.3915  1.1625 -0.0875
 3204TIP3   OH210040   6.046   2.736   4.105 -0.1439  0.3049  0.6511
 3204TIP3    H110041   6.052   2.824   4.069  1.8745  0.3748  1.0966
 3204TIP3    H210042   5.960   2.704   4.077 -0.3302  1.9007 -0.6633
 3205TIP3   OH210043   2.291   3.260   2.559 -0.3175 -0.2673 -0.2278
 3205TIP3    H110044   2.306   3.211   2.478  2.2400  0.6259 -0.3391
 3205TIP3    H210045   2.209   3.225   2.593  0.4411 -3.2571 -1.3066
 3206TIP3   OH210046   3.679   2.794   4.478 -0.4787  0.1359 -0.3366
 3206TIP3    H110047   3.752   2.846   4.446  0.0029 -1.0549 -1.2109
 3206TIP3    H210048   3.602   2.846   4.457 -0.1178 -0.1940 -2.6442
 3207TIP3   OH210049   1.518   3.633   2.466 -0.0941  0.3580  0.2118
 3207TIP3    H110050   1.540   3.646   2.374 -0.9583 -1.3512 -0.2450
 3207TIP3    H210051   1.536   3.541   2.483  1.6065  1.0057  2.2028
 3208TIP3   OH210052   0.958   3.417   1.124  0.2948  0.3660  0.2825
 3208TIP3    H110053   0.867   3.415   1.154  0.4249 -1.6031  0.6520
 3208TIP3    H210054   0.963   3.494   1.068 -2.2552 -0.8200 -1.7149
 3209TIP3   OH210055   4.762   2.089   1.908 -0.6029  0.4136 -0.2538
 3209TIP3    H110056   4.834   2.040   1.867 -1.4123 -2.1843  1.3268
 3209TIP3    H210057   4.805   2.148   1.970  0.2058 -1.0007  0.5578
 3210TIP3   OH210058   3.608   3.157   2.557 -0.1916  0.3506 -0.4075
 3210TIP3    H110059   3.522   3.166   2.596 -0.1263  0.1518 -0.2170
 3210TIP3    H210060   3.592   3.119   2.471 -0.2212 -0.5558 -0.0053
 3211TIP3   OH210061   1.129   2.432   2.761  0.2014  0.1860  0.7191
 3211TIP3    H110062   1.184   2.371   2.811  1.9391  0.1020 -1.2394
 3211TIP3    H210063   1.080   2.479   2.828  1.4912 -0.8434  2.4546
 3212TIP3   OH210064   4.966   3.478   4.635 -0.3709 -0.1242  0.0614
 3212TIP3    H110065   5.032   3.421   4.594 -1.9222 -0.2254 -2.4144
 3212TIP3    H210066   4.893   3.478   4.573 -2.6290  0.1685  2.6421
 3213TIP3   OH210067   2.467   2.107   1.372 -0.4470 -0.1618 -0.0382
 3213TIP3    H110068   2.511   2.023   1.364  2.4602  1.3426 -0.3211
 3213TIP3    H210069   2.418   2.101   1.454  0.9693 -1.5736  0.7203
 3214TIP3   OH210070   1.805   2.747   2.166 -0.2103  0.2042  0.0229
 3214TIP3    H110071   1.760   2.829   2.147 -0.9325 -0.1496  0.2002
 3214TIP3    H210072   1.892   2.758   2.126 -0.6023  0.7089 -0.7011
 3215TIP3   OH210073   2.732   1.913   4.879  0.1845  0.2298 -0.5664
 3215TIP3    H110074   2.687   1.866   4.809  0.7357  0.0863 -0.8238
 3215TIP3    H210075   2.702   2.003   4.870 -1.6902 -0.2329  0.5755
 3216TIP3   OH210076   4.235   3.181   1.558  0.1424  0.0148  0.0036
 3216TIP3    H110077   4.171   3.250   1.571 -0.3612 -0.4855  0.1673
 3216TIP3    H210078   4.229   3.161   1.464  0.2209  0.1225 -0.0252
 3217TIP3   OH210079   1.827   3.492   1.090 -0.1424 -0.2314  0.1486
 3217TIP3    H110080   1.766   3.421   1.111 -0.4724  0.2627  0.8638
 3217TIP3    H210081   1.824   3.550   1.166  1.3302 -0.2721  0.2615
 3218TIP3   OH210082   0.375   2.598   0.385  0.0339 -0.3107 -0.4189
 3218TIP3    H110083   0.291   2.622   0.344  0.5415 -0.1613 -1.3985
 3218TIP3    H210084   0.362   2.509   0.417 -0.5459 -0.2349 -0.4381
 3219TIP3   OH210085   1.175   3.779   2.348 -0.7467  0.7603  0.1499
 3219TIP3    H110086   1.253   3.824   2.315 -0.2872  2.2765  3.1261
 3219TIP3    H210087   1.134   3.742   2.270  1.4964  2.2253 -1.8037
 3220TIP3   OH210088   3.190   5.247   5.280  0.3114 -0.2718  0.4819
 3220TIP3    H110089   3.125   5.195   5.327  0.5324 -0.0591  1.0210
 3220TIP3    H210090   3.260   5.261   5.343  1.8311 -2.2423 -0.6804
 3221TIP3   OH210091   5.205   2.460   1.149  0.4689  0.1476 -0.2385
 3221TIP3    H110092   5.293   2.428   1.129  0.0746 -0.7612 -0.5202
 3221TIP3    H210093   5.163   2.387   1.195 -1.3270 -0.7506 -3.1768
 3222TIP3   OH210094   4.318   1.368   2.204  0.0022  1.0562 -0.0465
 3222TIP3    H110095   4.358   1.290   2.241  0.4383  1.2497 -0.1110
 3222TIP3    H210096   4.384   1.405   2.146 -0.9627  0.3117 -1.6620
 3223TIP3   OH210097   3.354   2.651   3.044  0.0058  0.1978 -0.0953
 3223TIP3    H110098   3.447   2.671   3.036 -0.2861  1.4501 -0.3724
 3223TIP3    H210099   3.352   2.564   3.085  1.3229 -0.7104 -1.8560
 3224TIP3   OH210100   2.277   5.057   2.888  0.3223 -0.6205 -0.1911
 3224TIP3    H110101   2.246   4.995   2.954 -0.4854  0.9526  0.9464
 3224TIP3    H210102   2.278   5.142   2.933  1.4947  0.1898 -1.6789
 3225TIP3   OH210103   6.036   2.229   0.976 -0.0626 -0.0588 -0.4841
 3225TIP3    H110104   6.038   2.182   0.893  3.3175  0.6297 -0.8876
 3225TIP3    H210105   6.112   2.288   0.972  0.1738  0.0116  3.0829
 3226TIP3   OH210106   4.403   1.789   1.531  0.3281 -0.3742  0.1107
 3226TIP3    H110107   4.362   1.852   1.590 -1.4853 -0.5311 -0.9326
 3226TIP3    H210108   4.356   1.707   1.547  0.2039 -0.5561 -1.1244
 3227TIP3   OH210109   3.118   2.550   3.231 -0.0003  0.5740 -0.8005
 3227TIP3    H110110   3.139   2.609   3.304  0.1458 -1.2278  0.6412
 3227TIP3    H210111   3.037   2.585   3.194  0.8649  2.5271 -0.8965
 3228TIP3   OH210112   4.636   2.489   2.872  0.7318  0.5999 -0.6498
 3228TIP3    H110113   4.717   2.534   2.851  1.1843 -0.3552 -1.0200
 3228TIP3    H210114   4.617   2.437   2.793  0.2211  0.1760 -0.2533
 3229TIP3   OH210115   2.393   2.020   2.781 -0.0407  0.2801 -0.3940
 3229TIP3    H110116   2.432   2.032   2.868 -2.0875 -1.5470  0.8342
 3229TIP3    H210117   2.341   1.940   2.789  1.1981 -0.9516 -3.8906
 3230TIP3   OH210118   1.003   2.644   2.876 -0.5628  0.0857 -0.0645
 3230TIP3    H110119   1.056   2.724   2.877 -0.0964 -0.2167 -0.6996
 3230TIP3    H210120   0.921   2.669   2.919  0.0774  0.5701  0.8864
 3231TIP3   OH210121   4.292   2.925   4.428 -0.3543  0.0337 -0.1323
 3231TIP3    H110122   4.272   2.855   4.490 -0.2186  0.7722  0.7675
 3231TIP3    H210123   4.307   2.881   4.345 -0.2811 -0.9993  0.4250
 3232TIP3   OH210124   0.999   1.653   2.028 -0.2726 -0.1376  0.7907
 3232TIP3    H110125   0.939   1.585   2.059  0.5366 -0.4224  1.7580
 3232TIP3    H210126   1.034   1.619   1.946 -2.4871  0.6521 -0.5374
 3233TIP3   OH210127   5.276   2.219   3.836  0.5713  0.2967  0.1606
 3233TIP3    H110128   5.289   2.179   3.750  1.3583 -0.1222  0.4640
 3233TIP3    H210129   5.211   2.165   3.879 -1.9644  2.1421 -1.2095
 3234TIP3   OH210130   4.376   1.269   1.122 -0.0598 -0.6252 -0.1387
 3234TIP3    H110131   4.387   1.176   1.104  1.5547 -0.7203  1.1675
 3234TIP3    H210132   4.390   1.311   1.038 -0.9446 -1.5612 -0.7659
 3235TIP3   OH210133   3.098   3.312   1.396 -0.2658  0.1884  0.3189
 3235TIP3    H110134   3.082   3.268   1.313  1.2136  1.2616 -0.5651
 3235TIP3    H210135   3.029   3.378   1.403 -0.9231 -0.5024  0.3854
 3236TIP3   OH210136   2.790   1.011   1.795 -0.0813  0.2408  0.1103
 3236TIP3    H110137   2.812   0.921   1.820  0.1999  0.0550 -0.8006
 3236TIP3    H210138   2.737   1.044   1.868 -0.0734 -0.6155  0.5067
 3237TIP3   OH210139   3.534   4.820   4.159 -0.5115  0.4194 -0.0360
 3237TIP3    H110140   3.628   4.839   4.149 -0.6965  1.0305 -0.6743
 3237TIP3    H210141   3.505   4.878   4.230 -1.2448  3.2158 -2.5108
 3238TIP3   OH210142   4.242   4.105   4.095 -0.1962  0.1936  0.4341
 3238TIP3    H110143   4.188   4.105   4.174  0.5463 -0.0712  0.9505
 3238TIP3    H210144   4.332   4.097   4.127  0.0239 -1.2950 -0.5075
 3239TIP3   OH210145   2.930   0.650   3.672  0.2510  0.0716  0.1778
 3239TIP3    H110146   2.854   0.601   3.704 -0.6373  0.9400 -0.5604
 3239TIP3    H210147   2.996   0.639   3.741  0.9963 -4.1976 -1.0343
 3240TIP3   OH210148   3.821   3.377   2.787  0.7043  0.2188 -0.1617
 3240TIP3    H110149   3.893   3.369   2.723  1.8285  1.8514  0.8594
 3240TIP3    H210150   3.750   3.418   2.738  1.2527  0.6543 -0.5966
 3241TIP3   OH210151   2.780   4.349   1.850  0.4762  0.8161 -0.1367
 3241TIP3    H110152   2.844   4.420   1.860 -0.4411  1.6796 -0.2136
 3241TIP3    H210153   2.755   4.326   1.940  1.0732  0.3149 -0.1005
 3242TIP3   OH210154   3.268   2.654   4.011 -0.1259  0.2372  0.3826
 3242TIP3    H110155   3.272   2.741   3.971  0.8246 -0.9017 -2.1404
 3242TIP3    H210156   3.360   2.630   4.024 -0.3936 -0.3045  1.2889
 3243TIP3   OH210157   5.397   3.138   2.514 -0.9419  0.0743 -0.3568
 3243TIP3    H110158   5.394   3.185   2.431 -2.2844 -1.6283 -1.3013
 3243TIP3    H210159   5.325   3.075   2.509 -1.0990 -0.0003  2.1367
 3244TIP3   OH210160   4.255   3.943   0.989 -0.4531  0.4881  0.3424
 3244TIP3    H110161   4.168   3.981   0.990 -1.6280 -1.9026 -2.6467
 3244TIP3    H210162   4.256   3.882   1.063 -0.0304  3.0555  2.5236
 3245TIP3   OH210163   4.204   3.754   1.205 -0.1649 -0.5487 -0.4925
 3245TIP3    H110164   4.185   3.768   1.298 -0.8787 -1.2116 -0.5306
 3245TIP3    H210165   4.152   3.677   1.181  0.2741 -0.5848 -1.3593
 3246TIP3   OH210166   1.246   2.007   3.133  0.3017 -0.0600  0.0809
 3246TIP3    H110167   1.289   2.037   3.214 -2.0686  0.7259  1.0936
 3246TIP3    H210168   1.159   1.978   3.161 -1.4288  2.3759 -2.4936
 3247TIP3   OH210169   0.793   3.767   1.529  0.5201 -0.0064  0.1470
 3247TIP3    H110170   0.885   3.742   1.521  0.6192  0.6006 -0.7391
 3247TIP3    H210171   0.752   3.694   1.575  0.7327 -1.9739 -2.6347
 3248TIP3   OH210172   3.285   2.850   3.201 -0.3935 -0.1641 -0.2951
 3248TIP3    H110173   3.306   2.783   3.135  0.5620  0.4060 -0.5917
 3248TIP3    H210174   3.348   2.920   3.184 -0.2721  0.0818  1.1063
 3249TIP3   OH210175   0.787   1.051   2.463 -0.0368 -0.0389  0.0566
 3249TIP3    H110176   0.805   0.958   2.467 -0.7398 -0.1323  1.5634
 3249TIP3    H210177   0.714   1.064   2.524  0.0392  1.4834 -0.1516
 3250TIP3   OH210178   1.755   2.100   2.755  0.6230 -0.1797  0.1398
 3250TIP3    H110179   1.674   2.143   2.727  1.1594  1.3139  0.8473
 3250TIP3    H210180   1.767   2.030   2.691 -0.4916  0.4542 -0.7988
 3251TIP3   OH210181   3.766   2.491   1.080 -0.2476 -0.0034 -0.0836
 3251TIP3    H110182   3.701   2.483   1.010  0.1520  0.1268 -0.4716
 3251TIP3    H210183   3.715   2.497   1.161 -0.7253  0.5904 -0.4329
 3252TIP3   OH210184   6.038   0.404   4.373  0.0485  0.0634  0.4453
 3252TIP3    H110185   5.998   0.481   4.333 -1.5804 -1.2916 -0.6440
 3252TIP3    H210186   6.095   0.438   4.441  1.6321  2.3980 -1.9433
 3253TIP3   OH210187   1.838   5.769   3.605  0.4425  0.4385 -0.2664
 3253TIP3    H110188   1.799   5.692   3.564  2.7016 -0.1650 -1.3644
 3253TIP3    H210189   1.767   5.834   3.607 -0.5332 -0.5136 -2.4411
 3254TIP3   OH210190   3.680   3.757   1.937 -0.5820  0.3461  0.1132
 3254TIP3    H110191   3.672   3.710   1.854 -0.1765  0.1867  0.1627
 3254TIP3    H210192   3.670   3.689   2.004 -0.1127  0.3453  0.1859
 3255TIP3   OH210193   3.467   3.896   2.346  0.2899  0.2674  0.3877
 3255TIP3    H110194   3.549   3.849   2.363  0.0932 -0.0426  0.4846
 3255TIP3    H210195   3.486   3.950   2.270 -0.3684 -2.2719 -1.6812
 3256TIP3   OH210196   4.680   3.087   1.740 -0.2593  0.0512  0.0925
 3256TIP3    H110197   4.685   3.176   1.776  0.4578 -0.4699  1.3008
 3256TIP3    H210198   4.587   3.064   1.744 -0.3959  0.6029  0.1100
 3257TIP3   OH210199   4.321   1.711   2.325 -0.1166 -0.0518  0.5259
 3257TIP3    H110200   4.387   1.752   2.379 -0.4697  0.5921  0.4719
 3257TIP3    H210201   4.364   1.694   2.241 -0.5648  2.1379 -0.1711
 3258TIP3   OH210202   5.180   0.650   1.678  0.3321  0.0588  0.0277
 3258TIP3    H110203   5.201   0.736   1.641 -0.2763 -0.0776 -0.6532
 3258TIP3    H210204   5.216   0.652   1.767 -0.3643  1.3157  0.2986
 3259TIP3   OH210205   4.515   0.723   2.624 -0.6240  0.1559 -0.1603
 3259TIP3    H110206   4.533   0.753   2.713 -1.0859 -0.3536  0.1096
 3259TIP3    H210207   4.582   0.655   2.608 -0.4054  0.3982 -0.2832
 3260TIP3   OH210208   4.625   3.071   3.624  0.1724 -0.2685  0.1884
 3260TIP3    H110209   4.629   3.032   3.537  0.8280 -0.8640  0.4801
 3260TIP3    H210210   4.604   2.999   3.683  1.4246 -0.2144  0.7364
 3261TIP3   OH210211   4.623   4.342   3.882  0.5262 -0.1943 -0.5982
 3261TIP3    H110212   4.582   4.258   3.862 -1.2114  0.4034  0.3255
 3261TIP3    H210213   4.553   4.407   3.868  1.2073  0.8711  0.7433
 3262TIP3   OH210214   6.045   4.911   4.982  0.2560  0.5819 -0.1368
 3262TIP3    H110215   6.036   4.994   5.029  0.1853  0.5292 -0.0574
 3262TIP3    H210216   6.058   4.846   5.052 -0.3670  0.4295 -0.1666
 3263TIP3   OH210217   4.697   1.001   3.286  0.6940  0.0858 -0.1460
 3263TIP3    H110218   4.760   0.956   3.230 -0.1931  0.4963 -1.5030
 3263TIP3    H210219   4.634   0.934   3.312  0.5552  0.1066 -0.4347
 3264TIP3   OH210220   4.330   2.140   2.757 -0.2468 -0.1787  0.2319
 3264TIP3    H110221   4.331   2.060   2.704 -0.7228 -1.4152  2.0585
 3264TIP3    H210222   4.420   2.149   2.789  0.4804  1.5332 -2.1430
 3265TIP3   OH210223   4.513   1.746   3.117 -0.5116 -0.6425  0.1121
 3265TIP3    H110224   4.529   1.678   3.051 -0.4765 -1.1310  0.6243
 3265TIP3    H210225   4.434   1.790   3.087 -1.8724 -2.4177  0.9975
 3266TIP3   OH210226   3.995   2.112   1.995  0.1452  0.2523 -0.2223
 3266TIP3    H110227   4.006   2.090   2.088  0.0686 -0.6910 -0.4280
 3266TIP3    H210228   4.004   2.207   1.991 -1.3738  0.4641  0.9780
 3267TIP3   OH210229   4.803   2.363   3.075  0.3024  0.3610 -0.6563
 3267TIP3    H110230   4.877   2.394   3.023 -1.1904  0.3412 -2.8664
 3267TIP3    H210231   4.729   2.365   3.014 -1.6638  1.0347  1.6856
 3268TIP3   OH210232   4.344   2.148   4.472  0.0130  0.6897 -0.1084
 3268TIP3    H110233   4.266   2.128   4.421  1.0414  0.2743 -1.5616
 3268TIP3    H210234   4.323   2.117   4.560 -1.0512 -0.4394 -0.7298
 3269TIP3   OH210235   4.254   3.844   2.291 -0.2980 -0.4336  0.3467
 3269TIP3    H110236   4.306   3.913   2.333  1.3401 -0.8333 -0.9612
 3269TIP3    H210237   4.272   3.765   2.343 -0.6263 -0.2920  0.6751
 3270TIP3   OH210238   4.074   3.434   3.212  0.2351  0.0955  0.0356
 3270TIP3    H110239   4.026   3.357   3.240 -1.3955  0.7051 -1.0222
 3270TIP3    H210240   4.112   3.410   3.127  1.4106 -0.2281  0.6517
 3271TIP3   OH210241   5.695   1.223   1.761 -0.9292  0.0481 -0.2350
 3271TIP3    H110242   5.769   1.255   1.709  1.0262 -1.4865  1.5192
 3271TIP3    H210243   5.690   1.284   1.834  0.5470 -1.5315  1.2296
 3272TIP3   OH210244   3.449   2.423   0.493  0.0314 -0.2185  0.8746
 3272TIP3    H110245   3.410   2.336   0.485  0.7433 -0.3717 -1.2570
 3272TIP3    H210246   3.379   2.483   0.469  0.1708 -0.3378  0.1430
 3273TIP3   OH210247   3.465   2.721   2.685  0.1300  0.3156  0.1271
 3273TIP3    H110248   3.533   2.659   2.660 -0.5782  0.3392 -1.9596
 3273TIP3    H210249   3.506   2.807   2.674  0.0423  0.3053 -0.2914
 3274TIP3   OH210250   5.108   3.568   0.922  0.4102  0.0714 -0.3643
 3274TIP3    H110251   5.124   3.523   0.839 -0.9855  0.4039 -0.8239
 3274TIP3    H210252   5.152   3.514   0.988 -1.7742 -2.3426 -0.8037
 3275TIP3   OH210253   5.137   2.865   3.871 -0.7780 -0.2702 -0.3401
 3275TIP3    H110254   5.138   2.823   3.957 -2.6826 -0.7245 -0.5239
 3275TIP3    H210255   5.153   2.794   3.809  1.6432  0.2166 -0.3437
 3276TIP3   OH210256   5.324   0.973   1.850  0.2318  0.2966  0.3480
 3276TIP3    H110257   5.381   0.917   1.902 -1.2969 -1.5598  0.0928
 3276TIP3    H210258   5.238   0.965   1.892 -0.7115 -0.1037 -1.5820
 3277TIP3   OH210259   1.203   2.226   2.339  1.1527  0.0615  0.2313
 3277TIP3    H110260   1.185   2.144   2.385  1.3760 -0.0703  0.0850
 3277TIP3    H210261   1.242   2.198   2.256  0.5853  0.2912 -0.1136
 3278TIP3   OH210262   5.510   1.075   1.614 -0.0031 -0.1733 -0.1546
 3278TIP3    H110263   5.486   1.021   1.689  1.2792  0.2859  0.6082
 3278TIP3    H210264   5.586   1.126   1.645 -0.1168  0.7797 -1.4162
 3279TIP3   OH210265   6.083   4.017   2.474  0.1235 -0.5678 -0.3745
 3279TIP3    H110266   6.087   3.922   2.468  0.4007 -0.4830 -1.7405
 3279TIP3    H210267   6.174   4.046   2.467  0.0145 -0.1813 -0.2354
 3280TIP3   OH210268   6.077   4.607   4.150  0.1364 -0.1744 -0.2328
 3280TIP3    H110269   6.147   4.586   4.213  0.4092 -0.3233 -0.5879
 3280TIP3    H210270   5.999   4.619   4.205 -0.1298 -2.5214 -0.0328
 3281TIP3   OH210271   4.218   3.111   3.157 -0.0600  0.3068 -0.3094
 3281TIP3    H110272   4.140   3.060   3.138 -0.2103  0.7429 -0.8630
 3281TIP3    H210273   4.283   3.047   3.187  0.1666 -0.3709 -2.2196
 3282TIP3   OH210274   1.076   4.373   3.754 -0.0774  0.0901 -0.2235
 3282TIP3    H110275   1.039   4.328   3.830 -1.0924 -0.3039 -0.9365
 3282TIP3    H210276   1.168   4.346   3.752  0.0875  0.5052  1.1452
 3283TIP3   OH210277   2.814   3.269   1.595  0.0434  0.0010  0.3047
 3283TIP3    H110278   2.827   3.196   1.534 -0.8368 -0.1741  0.3317
 3283TIP3    H210279   2.768   3.231   1.669 -0.9538  0.7038  0.0623
 3284TIP3   OH210280   0.423   0.768   2.523 -0.7512 -0.0900  0.5517
 3284TIP3    H110281   0.409   0.688   2.473 -1.0374 -0.2615  0.9071
 3284TIP3    H210282   0.518   0.778   2.526 -0.6792 -0.9358  1.3154
 3285TIP3   OH210283   5.702   3.175   2.783 -0.1557  0.2618 -0.1672
 3285TIP3    H110284   5.705   3.083   2.758  0.3907  0.1349  0.3664
 3285TIP3    H210285   5.662   3.176   2.869  1.2779  0.3753  0.5174
 3286TIP3   OH210286   4.912   2.026   2.273 -0.1046 -0.2672  0.7203
 3286TIP3    H110287   4.836   2.083   2.266  0.1730  0.0420  0.1692
 3286TIP3    H210288   4.921   2.009   2.367 -0.0614  0.7723  0.9134
 3287TIP3   OH210289   4.136   3.558   2.771 -0.1168 -0.2132  0.2843
 3287TIP3    H110290   4.121   3.580   2.679  1.7530 -2.5914 -0.6475
 3287TIP3    H210291   4.101   3.469   2.780  1.1672 -0.6073  1.4659
 3288TIP3   OH210292   4.757   2.292   2.665 -0.2106  0.0019  0.1446
 3288TIP3    H110293   4.853   2.288   2.669 -0.1996 -1.7442 -1.4499
 3288TIP3    H210294   4.735   2.255   2.580 -2.2716  1.3132  0.0702
 3289TIP3   OH210295   5.570   5.123   0.753  0.1317 -0.4633  0.2066
 3289TIP3    H110296   5.580   5.044   0.700  0.6016 -0.3488  0.1208
 3289TIP3    H210297   5.480   5.150   0.740  0.1131 -0.7057 -0.1603
 3290TIP3   OH210298   4.416   2.949   3.279 -0.2308  0.1111  0.5802
 3290TIP3    H110299   4.337   2.898   3.300 -0.5933  1.4536  2.6044
 3290TIP3    H210300   4.483   2.912   3.336  0.0439  0.4635  0.4817
 3291TIP3   OH210301   2.390   1.955   2.471  0.2754 -0.2705 -0.4576
 3291TIP3    H110302   2.299   1.979   2.454  0.1310 -1.4977 -1.4980
 3291TIP3    H210303   2.402   1.970   2.565 -0.9550  0.0382 -0.3465
 3292TIP3   OH210304   4.318   3.147   4.849  0.4419  0.6794 -0.3747
 3292TIP3    H110305   4.373   3.192   4.785  0.3394  2.0051  0.4565
 3292TIP3    H210306   4.254   3.100   4.796  0.4959  1.5749 -1.2616
 3293TIP3   OH210307   5.062   2.634   3.283  0.6317 -0.5214 -0.1104
 3293TIP3    H110308   5.080   2.682   3.202  0.0609  0.8163  0.5414
 3293TIP3    H210309   5.138   2.576   3.293  0.4588 -1.0896 -1.8623
 3294TIP3   OH210310   5.120   1.400   3.118  0.2609 -0.2888 -0.7559
 3294TIP3    H110311   5.100   1.320   3.070 -0.4907 -0.7715  0.3479
 3294TIP3    H210312   5.036   1.430   3.151  0.8703 -0.4298  0.9815
 3295TIP3   OH210313   6.003   3.347   5.172 -1.0790 -0.9434 -0.1990
 3295TIP3    H110314   6.010   3.270   5.115  0.1208  0.1462 -1.5816
 3295TIP3    H210315   5.964   3.415   5.116 -0.4252 -0.0251  0.4437
 3296TIP3   OH210316   5.361   3.707   1.107 -0.1344 -0.0845  0.5872
 3296TIP3    H110317   5.316   3.738   1.028 -0.6281 -1.0109  0.5002
 3296TIP3    H210318   5.308   3.742   1.179 -0.1759  0.0293  0.5026
 3297TIP3   OH210319   2.762   3.120   2.135  0.0800  0.3442 -0.1120
 3297TIP3    H110320   2.799   3.037   2.166  0.2486  0.2776 -0.4874
 3297TIP3    H210321   2.822   3.148   2.065 -0.2133  0.5673 -0.2729
 3298TIP3   OH210322   6.046   3.888   5.080 -0.2029  0.3361  0.0700
 3298TIP3    H110323   5.983   3.942   5.033  0.4299  1.8473  0.8968
 3298TIP3    H210324   5.993   3.832   5.137 -0.8355  0.7153 -0.1472
 3299TIP3   OH210325   4.756   0.618   2.040 -0.4002  0.3725  0.0873
 3299TIP3    H110326   4.660   0.626   2.046 -0.4144  0.6380 -0.5027
 3299TIP3    H210327   4.786   0.707   2.024 -0.2154 -0.0243 -1.8948
 3300TIP3   OH210328   5.783   2.745   1.893  0.2003  0.6231  0.3654
 3300TIP3    H110329   5.720   2.816   1.899 -0.6633  0.1118 -2.1517
 3300TIP3    H210330   5.865   2.782   1.927 -0.1423  2.9441 -1.2628
 3301TIP3   OH210331   6.004   2.216   3.722 -0.5287 -0.0818 -0.2103
 3301TIP3    H110332   6.070   2.147   3.716 -1.3675 -1.1633  2.4466
 3301TIP3    H210333   5.921   2.172   3.704 -0.8107  0.7818 -1.0708
 3302TIP3   OH210334   3.671   2.911   2.671 -0.1489 -0.0310 -0.2986
 3302TIP3    H110335   3.739   2.862   2.624  0.5792 -0.0798  0.8015
 3302TIP3    H210336   3.651   2.985   2.613  1.9033  0.8105  0.0418
 3303TIP3   OH210337   2.654   1.274   2.397  0.4102  0.1773  0.7113
 3303TIP3    H110338   2.695   1.352   2.360  0.2570 -0.0451  0.0741
 3303TIP3    H210339   2.560   1.288   2.385  0.3831 -0.1127  0.5850
 3304TIP3   OH210340   4.713   2.274   3.454  0.3596 -0.2708 -0.0529
 3304TIP3    H110341   4.648   2.306   3.392 -0.4778  0.5367  1.2213
 3304TIP3    H210342   4.777   2.345   3.460  1.7082 -1.3039 -1.7576
 3305TIP3   OH210343   5.461   1.040   2.215  0.4822  0.3560  0.0765
 3305TIP3    H110344   5.463   0.957   2.168 -0.3768  1.3854 -1.8290
 3305TIP3    H210345   5.518   1.098   2.163  1.9830  0.6493  2.0020
 3306TIP3   OH210346   4.438   1.627   2.091  0.0489  0.3340  0.2489
 3306TIP3    H110347   4.526   1.658   2.112  0.3867 -0.2101 -0.3473
 3306TIP3    H210348   4.422   1.659   2.003 -0.9570  1.7364  0.9325
 3307TIP3   OH210349   0.286   2.485   2.545 -0.0769  0.3426  0.2251
 3307TIP3    H110350   0.312   2.500   2.635  0.5596 -0.5981  0.2103
 3307TIP3    H210351   0.211   2.426   2.551 -0.6137  1.0076  0.1666
 3308TIP3   OH210352   3.243   2.781   2.826 -0.1621 -0.0956  0.2572
 3308TIP3    H110353   3.273   2.727   2.899  1.2838  0.2517 -0.0615
 3308TIP3    H210354   3.306   2.764   2.756 -1.0400  0.2356 -0.6193
 3309TIP3   OH210355   4.371   0.722   1.512 -0.0032 -0.5806  0.2622
 3309TIP3    H110356   4.369   0.675   1.428 -0.9240  0.0181 -0.0600
 3309TIP3    H210357   4.451   0.774   1.508  0.5592 -1.4465  0.2460
 3310TIP3   OH210358   2.100   0.824   2.411  0.5456 -0.1012  0.0335
 3310TIP3    H110359   2.005   0.819   2.407  0.2911  3.6102  0.0533
 3310TIP3    H210360   2.129   0.797   2.324 -0.5203 -0.7372 -0.1322
 3311TIP3   OH210361   3.488   4.427   1.807 -0.1826  0.0762 -0.4985
 3311TIP3    H110362   3.550   4.381   1.864 -1.1672  0.4188  0.8644
 3311TIP3    H210363   3.471   4.510   1.852 -5.2431 -1.9156  1.5549
 3312TIP3   OH210364   4.725   1.344   1.775 -0.6194  0.1346 -0.0451
 3312TIP3    H110365   4.812   1.330   1.812  0.4003  1.0138 -2.0321
 3312TIP3    H210366   4.697   1.428   1.812 -0.9871 -0.5388  1.2349
 3313TIP3   OH210367   4.726   0.439   0.464 -1.2428  0.1789 -0.1827
 3313TIP3    H110368   4.793   0.472   0.404 -0.2472  0.2262  0.9526
 3313TIP3    H210369   4.774   0.389   0.530 -2.4136 -0.6299  0.0846
 3314TIP3   OH210370   4.851   1.440   3.182 -0.1558  0.1086 -0.0739
 3314TIP3    H110371   4.819   1.484   3.261 -0.6344 -0.4134  0.0293
 3314TIP3    H210372   4.788   1.369   3.167  0.4707 -0.3970 -0.3660
 3315TIP3   OH210373   0.292   1.102   2.622 -0.1094  0.0099  0.1245
 3315TIP3    H110374   0.274   1.184   2.576  1.1924  0.7765  0.9448
 3315TIP3    H210375   0.222   1.043   2.594 -0.3905  1.0270 -1.3940
 3316TIP3   OH210376   4.134   2.381   1.933  0.2352 -0.0847  0.0220
 3316TIP3    H110377   4.208   2.354   1.879 -0.2309 -1.4577  0.0562
 3316TIP3    H210378   4.172   2.399   2.019  0.2987 -2.4387  0.5146
 3317TIP3   OH210379   3.154   3.703   0.826  0.4825 -0.0912 -0.1863
 3317TIP3    H110380   3.212   3.674   0.896  0.5660  1.7862  0.5360
 3317TIP3    H210381   3.191   3.663   0.747 -0.3249 -3.2246  0.9579
 3318TIP3   OH210382   4.204   1.007   2.071  0.0554 -0.1932  0.2200
 3318TIP3    H110383   4.113   1.031   2.091 -0.3373 -0.5838 -1.0452
 3318TIP3    H210384   4.197   0.953   1.992  1.3958 -0.2070  0.1115
 3319TIP3   OH210385   5.900   0.860   2.463 -0.0272  0.9960 -0.1031
 3319TIP3    H110386   5.851   0.824   2.389  0.6334  0.6184 -0.3675
 3319TIP3    H210387   5.902   0.788   2.527 -0.2036  1.1618  0.0856
 3320TIP3   OH210388   3.296   1.920   1.028  0.0856 -0.7079  0.6765
 3320TIP3    H110389   3.254   2.003   1.047 -1.5718 -1.4113  0.1582
 3320TIP3    H210390   3.381   1.926   1.071  0.6428  1.8694 -0.6946
 3321TIP3   OH210391   4.888   4.176   3.574  0.5345 -0.1571 -0.4116
 3321TIP3    H110392   4.885   4.255   3.627  0.8874  0.2316 -0.9609
 3321TIP3    H210393   4.979   4.146   3.581  0.8237  0.4257 -1.5496
 3322TIP3   OH210394   4.662   2.315   0.574 -0.3186  0.3483 -0.0395
 3322TIP3    H110395   4.647   2.410   0.568  0.1771  0.5663  1.9066
 3322TIP3    H210396   4.592   2.284   0.632 -1.8068 -0.8447 -2.3751
 3323TIP3   OH210397   4.272   3.538   1.897 -0.0564  0.5347  0.0988
 3323TIP3    H110398   4.239   3.521   1.985  0.3350  0.6428  0.2695
 3323TIP3    H210399   4.282   3.452   1.858  2.8165  0.2509  1.2877
 3324TIP3   OH210400   4.856   4.435   3.369 -0.4245  0.2117 -0.2684
 3324TIP3    H110401   4.867   4.509   3.309  1.6861  0.7053  0.6899
 3324TIP3    H210402   4.936   4.434   3.422 -2.7467  0.6485  3.5021
 3325TIP3   OH210403   4.031   1.364   1.479  0.1696 -0.3705 -0.0124
 3325TIP3    H110404   4.111   1.378   1.428 -0.8832  0.6196 -1.4224
 3325TIP3    H210405   3.973   1.436   1.454 -0.1609  0.5394  3.0669
 3326TIP3   OH210406   4.344   1.935   2.954  0.0083  0.1960  0.0426
 3326TIP3    H110407   4.259   1.963   2.989  0.2466  0.1071  0.6902
 3326TIP3    H210408   4.322   1.862   2.896 -0.2878 -0.2679  0.7329
 3327TIP3   OH210409   5.237   2.009   2.523 -1.0351  0.2854 -0.5511
 3327TIP3    H110410   5.293   2.006   2.600  0.5370  0.2953 -1.6830
 3327TIP3    H210411   5.207   1.918   2.512  0.1476 -0.0749 -0.9343
 3328TIP3   OH210412   4.926   4.061   1.707 -0.9257  0.3927  0.1826
 3328TIP3    H110413   4.846   4.012   1.726 -0.7023 -1.0354 -2.3521
 3328TIP3    H210414   4.933   4.060   1.611  1.1981  1.9921  0.2866
 3329TIP3   OH210415   5.483   1.811   2.583  0.3129 -0.4782  0.5798
 3329TIP3    H110416   5.546   1.754   2.627  1.3696 -0.5158 -0.9364
 3329TIP3    H210417   5.532   1.891   2.564  0.1126 -0.7478 -1.1840
 3330TIP3   OH210418   6.021   4.473   3.204 -0.0154  0.5536 -0.1427
 3330TIP3    H110419   6.050   4.555   3.164 -1.2579 -0.4673 -3.2454
 3330TIP3    H210420   5.926   4.474   3.196 -0.0282 -1.3524 -0.5110
 3331TIP3   OH210421   0.733   0.311   2.956  0.5256 -0.3689 -0.1958
 3331TIP3    H110422   0.786   0.243   2.916 -1.3964 -0.7880 -2.1515
 3331TIP3    H210423   0.699   0.361   2.883 -1.0565  0.4193  1.0379
 3332TIP3   OH210424   1.424   0.612   3.261 -0.2511 -0.1615 -0.1065
 3332TIP3    H110425   1.459   0.701   3.255  2.1905 -1.1336 -0.9652
 3332TIP3    H210426   1.489   0.558   3.218 -1.0244 -2.5521  1.6145
 3333TIP3   OH210427   5.009   2.150   2.594 -0.5497  0.1426  0.3972
 3333TIP3    H110428   5.097   2.137   2.557 -0.0458 -0.5442  1.8179
 3333TIP3    H210429   4.972   2.062   2.600 -1.0429  0.3574  0.5157
 3334TIP3   OH210430   4.448   2.641   1.136 -0.3578 -0.5993  0.2207
 3334TIP3    H110431   4.523   2.670   1.188  0.1208 -0.5977 -0.4620
 3334TIP3    H210432   4.411   2.722   1.101 -1.6372 -0.4712  1.8468
 3335TIP3   OH210433   2.930   3.068   1.792 -0.4509 -0.0447 -0.2192
 3335TIP3    H110434   3.019   3.034   1.806 -1.0722 -1.0229  1.5667
 3335TIP3    H210435   2.941   3.163   1.786  1.0046 -0.3341 -2.6072
 3336TIP3   OH210436   6.036   4.130   0.867  0.2094  0.3436 -0.1832
 3336TIP3    H110437   6.123   4.123   0.828  0.6506  1.0027  0.6490
 3336TIP3    H210438   5.994   4.046   0.850  0.3503  0.6442 -2.1373
 3337TIP3   OH210439   5.651   3.041   1.923 -0.1343 -0.7072 -0.5969
 3337TIP3    H110440   5.613   3.129   1.930 -1.8622 -1.3457 -1.4163
 3337TIP3    H210441   5.580   2.983   1.952  0.7559 -1.8626 -0.7207
 3338TIP3   OH210442   4.236   3.788   0.759  0.1539  0.4250  0.9762
 3338TIP3    H110443   4.317   3.822   0.721  0.1543 -0.6062  0.0514
 3338TIP3    H210444   4.221   3.844   0.835  1.8621  0.4821  1.2979
 3339TIP3   OH210445   4.797   2.985   2.182 -0.0204  0.0605 -0.3776
 3339TIP3    H110446   4.850   3.007   2.106 -0.9107 -2.5846 -1.8367
 3339TIP3    H210447   4.725   3.048   2.180 -0.1456 -0.1230 -1.8553
 3340TIP3   OH210448   5.444   4.121   0.989 -0.4880 -0.4084 -0.0708
 3340TIP3    H110449   5.370   4.084   1.038 -1.2257  0.1809 -0.7236
 3340TIP3    H210450   5.414   4.207   0.961  0.1211 -0.5172 -1.1044
 3341TIP3   OH210451   4.214   1.737   3.543  0.6435 -0.2778  0.1157
 3341TIP3    H110452   4.149   1.779   3.486  1.1742  3.2054  1.9446
 3341TIP3    H210453   4.288   1.720   3.485  0.0264  0.4320 -0.8995
 3342TIP3   OH210454   3.856   2.368   1.887 -0.1639  0.1658  0.0029
 3342TIP3    H110455   3.830   2.441   1.942  2.2139  0.0325  1.3566
 3342TIP3    H210456   3.952   2.374   1.881 -0.1247 -1.5049 -1.7264
 3343TIP3   OH210457   0.688   1.993   1.363  0.1899  0.3188  0.0037
 3343TIP3    H110458   0.781   1.978   1.347  0.1337 -0.4167  0.3351
 3343TIP3    H210459   0.667   2.071   1.313  0.6558 -0.3259 -1.2067
 3344TIP3   OH210460   6.076   3.670   3.066 -0.5609 -0.2103  0.3186
 3344TIP3    H110461   6.086   3.730   2.992  1.8978 -0.6819  0.2407
 3344TIP3    H210462   5.982   3.651   3.068 -0.8765  0.9299 -1.7814
 3345TIP3   OH210463   2.917   4.170   1.674  0.5168  1.1178 -0.1048
 3345TIP3    H110464   2.893   4.231   1.743  0.0227 -0.1872  0.8943
 3345TIP3    H210465   2.953   4.094   1.720 -2.6296 -1.0756 -1.0325
 3346TIP3   OH210466   4.780   4.607   3.940 -0.3884 -0.1966  0.5524
 3346TIP3    H110467   4.763   4.529   3.887  0.5933 -1.3254  1.8904
 3346TIP3    H210468   4.836   4.662   3.884 -0.8561 -0.5616 -0.2832
 3347TIP3   OH210469   3.904   1.111   1.419  0.0299  0.2354 -0.2850
 3347TIP3    H110470   3.914   1.206   1.409 -1.0116  0.5999  1.9129
 3347TIP3    H210471   3.885   1.098   1.512  0.4367 -2.1615 -0.5092
 3348TIP3   OH210472   3.416   6.082   1.981  0.5149 -0.2332 -0.2897
 3348TIP3    H110473   3.337   6.078   1.928  0.8619 -0.0681 -0.8256
 3348TIP3    H210474   3.487   6.093   1.917  0.8587  0.7213  0.2483
 3349TIP3   OH210475   4.241   1.419   1.315 -0.1779 -0.1624 -0.0413
 3349TIP3    H110476   4.303   1.375   1.258 -0.0793  0.6537 -0.5724
 3349TIP3    H210477   4.292   1.444   1.392  0.1460  0.5033 -0.4757
 3350TIP3   OH210478   3.303   5.969   4.494  0.0458 -0.1432  0.2575
 3350TIP3    H110479   3.285   5.881   4.462 -0.6282  0.6505 -1.5991
 3350TIP3    H210480   3.267   5.969   4.583 -2.1256 -1.0338 -0.5715
 3351TIP3   OH210481   0.586   1.856   1.935 -0.0373  0.1065  0.0235
 3351TIP3    H110482   0.611   1.812   1.853 -0.9697 -0.4628  0.0456
 3351TIP3    H210483   0.523   1.797   1.976 -1.4055  1.5288 -0.0146
 3352TIP3   OH210484   4.376   4.724   2.327 -0.0130  0.1903  0.6921
 3352TIP3    H110485   4.422   4.702   2.408 -1.1396  1.6713  1.7607
 3352TIP3    H210486   4.288   4.688   2.340  0.0034 -0.1713 -0.1738
 3353TIP3   OH210487   3.008   1.091   2.528 -0.1196 -0.0273 -0.0784
 3353TIP3    H110488   2.932   1.090   2.470 -0.0945  0.3669 -0.1215
 3353TIP3    H210489   3.066   1.157   2.490  1.2035 -1.8416 -1.2554
 3354TIP3   OH210490   0.781   5.141   3.467  0.1825 -0.1287  0.2803
 3354TIP3    H110491   0.796   5.046   3.467 -0.2645 -0.2008 -0.6560
 3354TIP3    H210492   0.702   5.153   3.415  0.8041  0.8505 -0.4712
 3355TIP3   OH210493   5.048   3.064   3.129  0.2720  0.3328  0.4666
 3355TIP3    H110494   5.083   2.988   3.175  1.6375  0.8755  0.3312
 3355TIP3    H210495   5.067   3.138   3.186  0.4260  0.7855 -0.1593
 3356TIP3   OH210496   5.146   4.407   5.858  0.0223 -0.0781 -0.1234
 3356TIP3    H110497   5.130   4.486   5.806 -0.4348 -0.8395 -1.1792
 3356TIP3    H210498   5.194   4.349   5.799  2.6716  0.3875  1.4989
 3357TIP3   OH210499   5.890   2.066   2.774  0.3482 -0.0318 -1.1108
 3357TIP3    H110500   5.963   2.108   2.820 -0.8208  0.3142  0.4839
 3357TIP3    H210501   5.825   2.136   2.765 -0.4119 -0.7415 -1.1252
 3358TIP3   OH210502   1.558   4.462   3.395 -0.0557 -0.4580 -0.0503
 3358TIP3    H110503   1.641   4.474   3.441 -0.4553  0.8675  0.3631
 3358TIP3    H210504   1.493   4.505   3.451 -0.6938  0.3557 -1.3762
 3359TIP3   OH210505   3.891   2.935   4.426  0.5500  0.2791 -0.2695
 3359TIP3    H110506   3.904   3.030   4.434  1.3314  0.1286  0.2528
 3359TIP3    H210507   3.973   2.902   4.390  1.0094 -0.4564  1.4206
 3360TIP3   OH210508   2.663   3.587   2.296  0.1320 -0.0899  0.2424
 3360TIP3    H110509   2.574   3.623   2.292 -0.3247 -1.0495  1.4297
 3360TIP3    H210510   2.656   3.512   2.356  1.8645  0.1799  0.8094
 3361TIP3   OH210511   4.271   5.143   1.819  0.6012  0.1269 -0.5362
 3361TIP3    H110512   4.264   5.105   1.907  0.1435 -0.2041 -0.7151
 3361TIP3    H210513   4.348   5.199   1.823 -0.8522  2.1024  0.8251
 3362TIP3   OH210514   6.049   5.787   3.730 -0.2034 -0.3145  0.0139
 3362TIP3    H110515   5.997   5.708   3.748  1.2821 -1.5389 -0.9201
 3362TIP3    H210516   6.084   5.773   3.642 -1.3492  2.2178 -0.8904
 3363TIP3   OH210517   4.590   4.339   1.040 -0.6235  0.3415 -0.1865
 3363TIP3    H110518   4.558   4.256   1.075  0.9026 -0.2290 -0.1413
 3363TIP3    H210519   4.675   4.319   1.003  1.2447  2.4995  2.7429
 3364TIP3   OH210520   3.952   1.147   4.684  0.8029 -0.2673 -1.1780
 3364TIP3    H110521   3.947   1.052   4.685  0.2558 -0.2575  1.6198
 3364TIP3    H210522   4.013   1.169   4.755  0.2888  1.4746 -1.2514
 3365TIP3   OH210523   4.847   5.066   2.710 -0.5642 -0.0696  0.0566
 3365TIP3    H110524   4.782   5.085   2.642 -0.5627 -2.0231 -0.5333
 3365TIP3    H210525   4.931   5.068   2.663 -0.3160  1.0230  0.5258
 3366TIP3   OH210526   5.255   3.049   4.600 -0.3313  0.0346 -0.2536
 3366TIP3    H110527   5.305   3.071   4.522 -0.6496  0.5348 -0.3191
 3366TIP3    H210528   5.221   2.960   4.583  1.6259 -0.8523  0.3540
 3367TIP3   OH210529   2.999   5.345   2.000  0.4729 -0.1413  0.8080
 3367TIP3    H110530   2.933   5.313   2.062 -0.6620  1.4474  0.4318
 3367TIP3    H210531   3.044   5.415   2.047 -0.0677  0.7413  0.0213
 3368TIP3   OH210532   5.008   2.896   2.860  0.1860 -0.2828 -0.0182
 3368TIP3    H110533   5.032   2.842   2.935 -0.2361  1.4991  1.4303
 3368TIP3    H210534   5.091   2.916   2.817  0.8071  1.4264  1.9022
 3369TIP3   OH210535   4.954   6.048   3.361 -0.6030 -0.2079  0.0353
 3369TIP3    H110536   4.983   6.038   3.452 -2.3420  1.8070  0.8659
 3369TIP3    H210537   4.859   6.034   3.364 -0.7546  0.4035 -1.3803
 3370TIP3   OH210538   4.613   2.189   2.872  0.1192 -0.0160  0.1349
 3370TIP3    H110539   4.636   2.232   2.790 -0.9159 -1.1138 -0.7458
 3370TIP3    H210540   4.677   2.118   2.882  0.5400  0.4147  0.5271
 3371TIP3   OH210541   4.058   1.051   1.000  0.0854  0.3748 -0.2861
 3371TIP3    H110542   3.974   1.028   1.039  0.1279  1.5634  0.5193
 3371TIP3    H210543   4.119   0.985   1.034 -0.5834 -0.7478 -1.2037
 3372TIP3   OH210544   5.348   3.181   4.013  0.4760 -0.7945 -0.6977
 3372TIP3    H110545   5.255   3.164   4.002 -0.6513  3.5637  1.2471
 3372TIP3    H210546   5.370   3.242   3.942  1.9483 -1.8974 -1.2318
 3373TIP3   OH210547   5.266   1.610   2.456 -1.0200 -0.4454 -0.4840
 3373TIP3    H110548   5.263   1.524   2.498  0.9094 -0.9146 -1.2234
 3373TIP3    H210549   5.331   1.659   2.507 -1.4467  0.2616 -0.6178
 3374TIP3   OH210550   4.381   4.517   5.687 -0.1271 -0.0479  0.0202
 3374TIP3    H110551   4.470   4.532   5.653 -0.6936  1.3104 -0.8980
 3374TIP3    H210552   4.369   4.585   5.754 -0.4702 -0.2471  0.1627
 3375TIP3   OH210553   4.019   3.294   2.623 -0.1295 -0.1981  0.0007
 3375TIP3    H110554   4.107   3.279   2.586  0.0086 -1.0424  0.6700
 3375TIP3    H210555   3.959   3.267   2.553  0.1126  2.2753 -1.2415
 3376TIP3   OH210556   5.228   2.253   4.217  0.0997 -0.7690  0.1088
 3376TIP3    H110557   5.257   2.176   4.265  0.7802 -0.9851 -0.6326
 3376TIP3    H210558   5.222   2.223   4.126 -2.0605 -0.6245  0.1591
 3377TIP3   OH210559   4.896   1.570   0.165 -0.5167 -0.4830  0.2140
 3377TIP3    H110560   4.856   1.606   0.085 -1.1508 -1.3200  0.1405
 3377TIP3    H210561   4.921   1.646   0.216 -2.0561  0.0700  0.1743
 3378TIP3   OH210562   0.068   2.516   3.393  0.6080  0.2205 -0.0288
 3378TIP3    H110563  -0.002   2.567   3.351  0.0957  1.0227  1.7516
 3378TIP3    H210564   0.027   2.480   3.471  1.3296 -1.9299 -0.6173
 3379TIP3   OH210565   3.462   5.689   4.850  0.2319 -0.3023 -0.6147
 3379TIP3    H110566   3.500   5.766   4.809  1.3006 -1.6173 -2.1596
 3379TIP3    H210567   3.537   5.635   4.875 -0.5064 -1.0280  0.0934
 3380TIP3   OH210568   5.103   3.131   3.952  0.0649 -0.1380  0.1960
 3380TIP3    H110569   5.027   3.147   3.896  2.9845  0.1141 -3.9339
 3380TIP3    H210570   5.137   3.047   3.921  1.7920  0.0441  1.5786
 3381TIP3   OH210571   0.112   1.490   2.907  0.1212  0.2816 -0.0544
 3381TIP3    H110572   0.017   1.482   2.914 -0.2950  2.3489 -2.5291
 3381TIP3    H210573   0.139   1.416   2.853 -0.1906  0.1381 -0.0139
 3382TIP3   OH210574   4.126   2.274   1.235 -0.2291 -0.1381 -0.0524
 3382TIP3    H110575   4.043   2.241   1.271 -0.7230  0.0926 -0.9511
 3382TIP3    H210576   4.107   2.289   1.142  1.0722 -0.9046 -0.4500
 3383TIP3   OH210577   2.687   1.317   5.151 -0.6005  0.4498  0.1988
 3383TIP3    H110578   2.773   1.313   5.192 -1.0424 -1.0791  1.0123
 3383TIP3    H210579   2.626   1.323   5.225 -1.2531  0.3563 -0.3320
 3384TIP3   OH210580   4.736   0.751   1.760 -0.3729 -0.0246  0.2625
 3384TIP3    H110581   4.704   0.822   1.703  1.8550  0.5889 -0.2602
 3384TIP3    H210582   4.773   0.796   1.835  0.5721 -0.6669  0.1782
 3385TIP3   OH210583   4.265   0.425   4.847  0.3068  0.6094 -0.1112
 3385TIP3    H110584   4.224   0.448   4.930  2.4108 -1.1139  1.4914
 3385TIP3    H210585   4.222   0.480   4.782 -1.5267  1.8535  2.0884
 3386TIP3   OH210586   4.020   2.921   4.892  0.1685 -0.2458  0.2614
 3386TIP3    H110587   4.006   2.985   4.822 -0.4271  0.8033  1.3165
 3386TIP3    H210588   3.974   2.842   4.862  2.5082 -0.8267 -1.9197
 3387TIP3   OH210589   5.669   3.163   3.046  0.6198  0.5467 -0.1753
 3387TIP3    H110590   5.701   3.079   3.078 -0.3058  1.0583  2.1209
 3387TIP3    H210591   5.741   3.223   3.061  0.6857  0.5111 -0.3429
 3388TIP3   OH210592   2.208   2.969   0.380  0.2868 -0.2339 -0.2164
 3388TIP3    H110593   2.156   2.959   0.460 -0.3975  2.8382 -0.2052
 3388TIP3    H210594   2.156   2.927   0.312 -1.6438  1.6220  0.0475
 3389TIP3   OH210595   1.910   4.052   4.028 -0.2773 -0.6497 -0.3214
 3389TIP3    H110596   1.893   4.084   4.117  0.4601 -2.3380  0.4326
 3389TIP3    H210597   1.869   4.118   3.971  1.0563  1.5547  1.1841
 3390TIP3   OH210598   3.925   3.394   2.224  0.9887  0.1872  0.1557
 3390TIP3    H110599   4.013   3.362   2.201  1.2577  0.0025  1.3663
 3390TIP3    H210600   3.895   3.332   2.290  1.1777  1.9522  1.9512
 3391TIP3   OH210601   1.580   4.014   5.468  0.1932 -0.3273 -0.1144
 3391TIP3    H110602   1.579   3.942   5.404 -2.3923 -0.9369  0.5535
 3391TIP3    H210603   1.503   4.066   5.446  1.9593  2.2223 -0.4856
 3392TIP3   OH210604   5.356   4.945   5.365  0.3461  0.5121 -0.0792
 3392TIP3    H110605   5.396   4.906   5.443 -0.3928 -0.3785 -0.1402
 3392TIP3    H210606   5.345   4.872   5.305 -1.6777  0.6716  0.0565
 3393TIP3   OH210607   5.956   3.416   4.404 -0.4122  0.3970  0.5340
 3393TIP3    H110608   5.922   3.443   4.319 -1.5087  1.8154  1.3942
 3393TIP3    H210609   5.953   3.321   4.402 -1.9215  0.4514 -0.4270
 3394TIP3   OH210610   5.365   3.150   2.877  0.6579 -0.4233  0.1625
 3394TIP3    H110611   5.275   3.167   2.904  0.7938  0.0220  0.3309
 3394TIP3    H210612   5.405   3.107   2.953  0.0383 -2.4333 -0.6089
 3395TIP3   OH210613   1.507   5.198   3.423 -0.1286 -0.2100  0.1167
 3395TIP3    H110614   1.492   5.289   3.449  0.8722  0.1057 -0.3969
 3395TIP3    H210615   1.426   5.153   3.447 -1.1803  1.0857 -0.9552
 3396TIP3   OH210616   0.664   4.761   2.050 -0.0916 -0.2523 -0.1298
 3396TIP3    H110617   0.610   4.805   2.116  0.4971 -0.3525  0.4181
 3396TIP3    H210618   0.753   4.765   2.085  0.1781 -0.5579 -0.7820
 3397TIP3   OH210619   5.477   4.909   2.230  0.1293  0.2465  0.1202
 3397TIP3    H110620   5.553   4.951   2.190  0.8791 -1.7224 -0.5453
 3397TIP3    H210621   5.514   4.841   2.286 -1.0755  0.4777  1.2061
 3398TIP3   OH210622   0.772   4.590   2.779  0.4111  0.7419 -0.0239
 3398TIP3    H110623   0.863   4.619   2.770  0.7119  0.3772  1.5657
 3398TIP3    H210624   0.776   4.495   2.769 -0.0784  0.9080 -1.8527
 3399TIP3   OH210625   5.523   1.387   1.975 -0.1079  0.3482 -0.2180
 3399TIP3    H110626   5.501   1.369   1.883 -1.5066  0.6654  0.0577
 3399TIP3    H210627   5.529   1.482   1.980 -1.9557  0.4524  0.4443
 3400TIP3   OH210628   0.281   1.620   1.315 -0.1882 -0.3035 -0.3250
 3400TIP3    H110629   0.267   1.681   1.243  0.9497  0.0595 -0.2464
 3400TIP3    H210630   0.199   1.622   1.364 -0.6100  0.2010 -1.0419
 3401TIP3   OH210631   3.092   3.751   3.963  0.0191  0.0249 -0.1124
 3401TIP3    H110632   3.006   3.711   3.973 -0.1759 -0.0186 -1.8310
 3401TIP3    H210633   3.104   3.760   3.869  1.2490  1.4486  0.1540
 3402TIP3   OH210634   4.471   3.319   1.901  0.5372  0.0813 -0.0963
 3402TIP3    H110635   4.524   3.392   1.933 -1.4165  0.1756  3.1452
 3402TIP3    H210636   4.474   3.327   1.806  2.9752  2.4737  0.1216
 3403TIP3   OH210637   4.726   1.849   3.566  0.1061  0.0556 -0.0479
 3403TIP3    H110638   4.768   1.877   3.648  1.3626  0.6435 -0.8849
 3403TIP3    H210639   4.742   1.754   3.563 -1.1406 -0.2214  1.0448
 3404TIP3   OH210640   5.806   3.457   4.098  0.3208  0.2771 -0.4568
 3404TIP3    H110641   5.748   3.390   4.135  2.3832 -0.4496  1.5660
 3404TIP3    H210642   5.755   3.537   4.099 -0.7691 -0.4226  0.9767
 3405TIP3   OH210643   5.583   1.520   3.551  0.2902 -0.1284  0.4661
 3405TIP3    H110644   5.501   1.553   3.586 -0.5770  1.5755 -2.8908
 3405TIP3    H210645   5.557   1.459   3.481  1.9018 -1.1079  0.6774
 3406TIP3   OH210646   5.155   2.986   2.412  0.4541  0.4062 -0.3780
 3406TIP3    H110647   5.062   2.968   2.425 -0.0395  1.2608 -2.5457
 3406TIP3    H210648   5.184   2.918   2.351  0.7600  1.3417 -1.2883
 3407TIP3   OH210649   4.522   2.037   2.397  0.0891  0.1833 -0.4386
 3407TIP3    H110650   4.540   2.028   2.303 -0.4093  0.1605 -0.5356
 3407TIP3    H210651   4.512   2.132   2.410 -2.2583  0.0437 -0.8854
 3408TIP3   OH210652   4.267   3.527   0.656  0.5080  0.0485  0.0065
 3408TIP3    H110653   4.257   3.616   0.691  1.6096  0.2859 -0.2822
 3408TIP3    H210654   4.342   3.491   0.703 -0.4937 -1.0661  0.7910
 3409TIP3   OH210655   3.645   2.389   3.839  0.1878  0.2644 -0.5114
 3409TIP3    H110656   3.737   2.416   3.838  0.9293 -2.1351 -1.6591
 3409TIP3    H210657   3.646   2.302   3.880 -1.9799  1.4518  2.2313
 3410TIP3   OH210658   4.267   2.820   2.811 -0.1596 -0.0887  0.2238
 3410TIP3    H110659   4.276   2.877   2.887 -0.3729 -0.4549  0.5302
 3410TIP3    H210660   4.198   2.861   2.758  2.2887  1.9805 -1.4537
 3411TIP3   OH210661   0.395   0.565   2.342 -0.0923  0.1224  0.3262
 3411TIP3    H110662   0.317   0.534   2.296 -2.4858  2.8254  2.4427
 3411TIP3    H210663   0.467   0.539   2.284 -2.5933 -1.1315 -2.4200
 3412TIP3   OH210664   1.028   2.573   2.027  0.2346  0.3716  0.6632
 3412TIP3    H110665   1.080   2.525   1.963  2.9185  1.5633  1.8429
 3412TIP3    H210666   0.939   2.542   2.015  1.0720 -1.1078 -2.0530
 3413TIP3   OH210667   4.215   1.372   1.798  0.2233 -0.1849 -0.1941
 3413TIP3    H110668   4.132   1.376   1.847 -0.4238 -3.0783 -0.9436
 3413TIP3    H210669   4.274   1.322   1.854  0.2236 -1.4547 -1.2884
 3414TIP3   OH210670   0.010   5.265   3.813 -0.6123  0.3487 -0.1034
 3414TIP3    H110671   0.035   5.245   3.903  0.6856 -0.5908 -0.6545
 3414TIP3    H210672   0.001   5.180   3.771  0.1082  0.7981 -1.1953
 3415TIP3   OH210673   3.209   1.658   4.585  0.1323  0.0652  0.3102
 3415TIP3    H110674   3.247   1.665   4.498  1.1974 -0.8933  0.6961
 3415TIP3    H210675   3.133   1.601   4.573  0.7618 -0.7511  0.1615
 3416TIP3   OH210676   5.987   2.481   2.573 -0.0119 -0.2010 -0.4563
 3416TIP3    H110677   6.048   2.444   2.636  1.6249  1.3947 -1.0627
 3416TIP3    H210678   6.039   2.495   2.494 -1.9567 -1.8750 -2.1022
 3417TIP3   OH210679   4.862   4.037   4.180  0.0570 -0.3724 -0.0230
 3417TIP3    H110680   4.787   3.979   4.167  0.7918 -1.4909  0.6988
 3417TIP3    H210681   4.887   4.063   4.091  2.2886 -4.4612 -0.7071
 3418TIP3   OH210682   0.315   0.041   0.518  0.0402 -0.1547 -0.5643
 3418TIP3    H110683   0.286   0.002   0.436 -2.0797  2.1434 -0.9762
 3418TIP3    H210684   0.262  -0.001   0.585 -1.8335  1.5530 -0.9443
 3419TIP3   OH210685   3.631   3.516   1.802 -0.2503  0.1998  0.9634
 3419TIP3    H110686   3.586   3.546   1.882 -0.5018 -0.3549  1.0395
 3419TIP3    H210687   3.629   3.420   1.810  0.3773  0.1640  0.6467
 3420TIP3   OH210688   0.340   1.427   2.455 -0.0114 -0.4284  0.0072
 3420TIP3    H110689   0.274   1.391   2.514  2.4452 -0.7290  2.6889
 3420TIP3    H210690   0.419   1.434   2.509  1.3819  2.6982 -2.2788
 3421TIP3   OH210691   1.744   5.210   3.288  0.1435 -0.2869 -0.3054
 3421TIP3    H110692   1.659   5.177   3.318 -1.0476  1.7913 -1.2456
 3421TIP3    H210693   1.805   5.185   3.357 -0.9048 -3.2252 -0.3512
 3422TIP3   OH210694   1.666   1.120   1.014 -0.3477  0.2647  0.6317
 3422TIP3    H110695   1.578   1.091   1.040 -1.4920  3.5675  0.6688
 3422TIP3    H210696   1.651   1.184   0.945  2.0977  0.2810  0.0739
 3423TIP3   OH210697   3.154   0.406   3.662  0.3727 -0.0017  0.0012
 3423TIP3    H110698   3.142   0.445   3.749  0.5283 -0.5474  0.2675
 3423TIP3    H210699   3.247   0.418   3.643  0.4596 -0.4015  0.1630
 3424TIP3   OH210700   0.634   1.172   3.138  0.2445  0.0128  0.0173
 3424TIP3    H110701   0.724   1.186   3.108 -0.2474  0.3646 -1.3373
 3424TIP3    H210702   0.611   1.085   3.106  0.0157  0.0236  0.1512
 3425TIP3   OH210703   5.070   2.109   3.002  0.6322  0.7483 -0.2299
 3425TIP3    H110704   4.986   2.118   2.957  0.3839  1.6413  0.3967
 3425TIP3    H210705   5.052   2.052   3.076  0.7247  0.4101 -0.4691
 3426TIP3   OH210706   4.292   2.598   4.385  0.1404  0.8489  0.7316
 3426TIP3    H110707   4.312   2.507   4.364 -2.2783  0.7720 -1.3693
 3426TIP3    H210708   4.375   2.634   4.417  0.9478 -2.2708  2.3748
 3427TIP3   OH210709   0.167   0.397   0.626  0.2115  0.1049  1.1936
 3427TIP3    H110710   0.124   0.324   0.669  0.2875 -0.6403  0.0111
 3427TIP3    H210711   0.099   0.464   0.617 -0.6139 -0.9283 -0.3460
 3428TIP3   OH210712   3.404   3.139   3.180 -0.2038 -0.2593  0.0155
 3428TIP3    H110713   3.342   3.207   3.155  0.5119  0.2136 -0.4912
 3428TIP3    H210714   3.475   3.147   3.116  0.1805 -1.0702  0.3366
 3429TIP3   OH210715   5.576   1.754   2.278  0.3053  0.5447  0.2338
 3429TIP3    H110716   5.518   1.811   2.327 -0.0375  0.2991  0.1157
 3429TIP3    H210717   5.630   1.813   2.226  1.1571  0.8410  1.4386
 3430TIP3   OH210718   4.312   2.924   2.307 -0.3266 -0.1765  0.5164
 3430TIP3    H110719   4.380   2.930   2.374 -0.2726  0.5901  0.3930
 3430TIP3    H210720   4.357   2.946   2.226 -1.0903  1.9873  0.6606
 3431TIP3   OH210721   5.248   5.048   1.013 -0.2540  0.3452 -0.2654
 3431TIP3    H110722   5.216   5.064   0.924  1.7921 -0.6655 -1.2111
 3431TIP3    H210723   5.252   4.953   1.020 -0.5710  0.4106  1.0062
 3432TIP3   OH210724   0.385   5.438   3.923 -0.2800  0.0235  0.7725
 3432TIP3    H110725   0.339   5.374   3.978 -0.5140  0.1216  0.6899
 3432TIP3    H210726   0.315   5.488   3.881 -0.1435 -1.5555 -1.4076
 3433TIP3   OH210727   4.344   3.908   2.020  0.1992 -0.1241  0.3686
 3433TIP3    H110728   4.285   3.916   1.945 -1.3669 -0.1952  1.5766
 3433TIP3    H210729   4.295   3.857   2.084  1.6531 -0.3548  1.3232
 3434TIP3   OH210730   3.902   3.212   3.291  0.4352  0.8392 -0.0415
 3434TIP3    H110731   3.868   3.249   3.209  1.5969  1.1890 -0.3839
 3434TIP3    H210732   3.886   3.118   3.284 -0.0506  0.9472 -0.3924
 3435TIP3   OH210733   5.949   4.228   2.594 -0.1243  0.1485 -0.2552
 3435TIP3    H110734   5.874   4.240   2.536 -1.0209 -2.7186  0.2487
 3435TIP3    H210735   6.005   4.165   2.548  0.2142 -0.4859  1.0010
 3436TIP3   OH210736   0.049   2.423   2.782 -0.4482 -0.1562 -0.2348
 3436TIP3    H110737   0.056   2.508   2.825  1.5162 -1.1300  1.4640
 3436TIP3    H210738   0.020   2.363   2.851  0.3429 -1.2728 -0.8446
 3437TIP3   OH210739   4.124   3.944   3.177 -0.1412 -0.8527 -0.5812
 3437TIP3    H110740   4.071   3.877   3.134 -0.3313 -2.2180  1.6977
 3437TIP3    H210741   4.213   3.911   3.172  0.1563  0.1452 -2.0274
 3438TIP3   OH210742   5.446   4.402   1.659 -0.3674  0.1263 -0.4513
 3438TIP3    H110743   5.397   4.469   1.612  0.2386  0.7332 -0.2239
 3438TIP3    H210744   5.500   4.360   1.593  0.2558  0.7734 -0.3586
 3439TIP3   OH210745   4.797   3.203   5.832 -0.0924  0.2835 -0.8381
 3439TIP3    H110746   4.802   3.129   5.771 -0.1325  1.1084 -1.8496
 3439TIP3    H210747   4.786   3.162   5.918 -0.2202 -0.8851 -1.3995
 3440TIP3   OH210748   5.802   0.371   2.870  0.0231 -0.3531  0.1985
 3440TIP3    H110749   5.886   0.359   2.912 -0.4295 -0.0752  1.1956
 3440TIP3    H210750   5.739   0.330   2.929 -0.7651  1.1416  0.4146
 3441TIP3   OH210751   5.523   3.279   1.953 -0.8018  0.9730  0.2920
 3441TIP3    H110752   5.459   3.336   1.996 -0.0127  2.1116 -0.0247
 3441TIP3    H210753   5.533   3.317   1.865  1.6479  1.8836  0.9295
 3442TIP3   OH210754   2.203   1.570   3.946  0.1417  0.2757 -0.1649
 3442TIP3    H110755   2.224   1.557   3.854  0.2175  1.4168 -0.3178
 3442TIP3    H210756   2.108   1.583   3.948 -0.0677 -1.1602  0.0947
 3443TIP3   OH210757   5.617   2.299   0.787  0.4755 -0.9075  0.8099
 3443TIP3    H110758   5.667   2.236   0.734  0.5544  0.7693 -1.2090
 3443TIP3    H210759   5.675   2.320   0.860  0.4322 -3.1692  1.5430
 3444TIP3   OH210760   1.956   0.626   4.901  0.3034 -0.1196 -0.0247
 3444TIP3    H110761   1.995   0.711   4.879  1.2031 -0.1311  1.4347
 3444TIP3    H210762   1.862   0.637   4.885  0.7435  0.2927 -2.4282
 3445TIP3   OH210763   2.189   2.588   5.712 -0.1360 -0.4162 -0.1982
 3445TIP3    H110764   2.143   2.644   5.774  1.3293  2.8935 -1.9805
 3445TIP3    H210765   2.252   2.540   5.766 -0.7446  0.3760  1.2440
 3446TIP3   OH210766   0.993   2.371   0.490 -0.0354 -0.0126  0.0742
 3446TIP3    H110767   1.031   2.382   0.577 -2.2576 -0.1980  1.0939
 3446TIP3    H210768   0.936   2.447   0.479  1.3933  0.8217 -1.8821
 3447TIP3   OH210769   5.561   3.715   3.243  0.5197 -0.3741  0.6612
 3447TIP3    H110770   5.634   3.686   3.299  1.1041 -0.8489 -0.3372
 3447TIP3    H210771   5.533   3.636   3.198 -1.2597 -0.3791  1.7494
 3448TIP3   OH210772   5.579   2.755   2.831 -0.5460  0.1527 -0.1846
 3448TIP3    H110773   5.671   2.734   2.816 -0.4911  0.7738 -0.7421
 3448TIP3    H210774   5.550   2.796   2.750 -1.5443 -0.7929 -0.3111
 3449TIP3   OH210775   2.116   0.335   3.621  0.1222 -0.0750  0.0395
 3449TIP3    H110776   2.162   0.258   3.588  1.3205  0.8752 -0.5416
 3449TIP3    H210777   2.120   0.398   3.549 -3.1593 -0.3532 -0.5035
 3450TIP3   OH210778   0.469   3.971   4.792  0.4097  0.2629 -0.1727
 3450TIP3    H110779   0.394   3.922   4.758 -0.9014  1.6834  0.6488
 3450TIP3    H210780   0.495   3.922   4.870  1.6018 -1.3358 -1.5069
 3451TIP3   OH210781   5.531   4.387   6.031 -0.0599  0.0329  0.8755
 3451TIP3    H110782   5.487   4.332   6.095  0.8277  0.5924  1.9796
 3451TIP3    H210783   5.495   4.475   6.045  1.4018  0.4994  1.8038
 3452TIP3   OH210784   2.795   1.301   3.239 -0.1046  0.0975 -0.3162
 3452TIP3    H110785   2.799   1.282   3.145  0.0354 -2.6755  0.1981
 3452TIP3    H210786   2.863   1.366   3.254  0.7897 -0.4461 -1.9353
 3453TIP3   OH210787   0.347   2.554   2.824  0.2529 -0.2569  0.0471
 3453TIP3    H110788   0.295   2.625   2.861  1.8186  0.8154  0.2309
 3453TIP3    H210789   0.328   2.479   2.880 -3.3009 -0.6829 -1.6027
 3454TIP3   OH210790   1.630   2.430   2.052 -0.0576 -0.1006 -0.1733
 3454TIP3    H110791   1.635   2.334   2.049  0.8322  0.0006 -2.7167
 3454TIP3    H210792   1.692   2.454   2.121  0.5951 -1.3097 -0.3179
 3455TIP3   OH210793   2.021   4.804   5.745 -0.0078  0.3521  0.2335
 3455TIP3    H110794   2.049   4.886   5.785  0.3667  0.2230  0.2395
 3455TIP3    H210795   1.997   4.748   5.819 -0.2283  0.4415  0.2311
 3456TIP3   OH210796   1.309   2.537   3.627 -0.3269 -0.0077 -0.3843
 3456TIP3    H110797   1.262   2.570   3.551  1.0946  1.5575 -0.6025
 3456TIP3    H210798   1.248   2.549   3.700 -0.4359  1.6343 -0.7242
 3457TIP3   OH210799   5.934   2.318   1.576  0.2150  0.2285  0.9261
 3457TIP3    H110800   5.882   2.396   1.597 -3.3734 -1.2368 -1.9725
 3457TIP3    H210801   5.914   2.257   1.647 -0.6463  0.2996  0.7497
 3458TIP3   OH210802   6.045   2.377   2.251 -0.2457  0.0650 -0.3761
 3458TIP3    H110803   5.951   2.365   2.244 -0.5273 -0.4276  3.2142
 3458TIP3    H210804   6.055   2.468   2.280  0.3829  0.0297 -0.4752
 3459TIP3   OH210805   4.864   3.240   3.434 -0.0066 -0.2468  0.1319
 3459TIP3    H110806   4.773   3.245   3.407  0.2941 -0.2970 -0.9096
 3459TIP3    H210807   4.870   3.299   3.509 -1.7598 -3.1325  2.7001
 3460TIP3   OH210808   1.450   3.495   3.689  0.5371  0.2680 -0.0062
 3460TIP3    H110809   1.469   3.407   3.655 -1.5738 -0.6105  0.9980
 3460TIP3    H210810   1.507   3.553   3.638 -0.3534 -1.3278 -2.9147
 3461TIP3   OH210811   3.380   2.971   1.921  0.5923  0.4421 -0.5065
 3461TIP3    H110812   3.444   2.900   1.934 -0.8239 -0.7501  0.0461
 3461TIP3    H210813   3.419   3.046   1.966  0.6617 -0.8302  1.6643
 3462TIP3   OH210814   5.084   3.405   2.340  0.4779 -0.3873 -0.4248
 3462TIP3    H110815   5.018   3.464   2.305  0.8324  1.2337  1.5672
 3462TIP3    H210816   5.054   3.385   2.429  0.6460 -2.7889 -0.8823
 3463TIP3   OH210817   3.816   0.877   4.159 -0.3245 -0.4897  0.1745
 3463TIP3    H110818   3.827   0.863   4.065  2.6987  0.7167  0.2918
 3463TIP3    H210819   3.746   0.942   4.165  0.9279  1.0755 -1.3933
 3464TIP3   OH210820   5.173   3.538   0.630 -0.2369 -0.0728 -0.2379
 3464TIP3    H110821   5.148   3.445   0.633 -2.1777  0.4001 -0.8822
 3464TIP3    H210822   5.253   3.539   0.578  0.3029 -1.4849  0.5269
 3465TIP3   OH210823   0.162   4.449   3.948  0.0841 -0.3626  0.3943
 3465TIP3    H110824   0.098   4.480   4.012  1.6574  2.4952  0.6576
 3465TIP3    H210825   0.219   4.390   3.998  0.0316  0.1830  1.0937
 3466TIP3   OH210826   5.986   3.109   5.019 -0.2703  0.1311 -0.1131
 3466TIP3    H110827   5.910   3.051   5.023 -1.2312  1.4291  1.0848
 3466TIP3    H210828   6.061   3.051   5.034 -1.2305 -0.7556  1.3986
 3467TIP3   OH210829   5.841   4.588   2.741 -0.2793 -0.1333 -0.2784
 3467TIP3    H110830   5.887   4.510   2.771 -0.4584 -0.7264 -1.4931
 3467TIP3    H210831   5.826   4.572   2.648  1.0195  2.0128 -0.8810
 3468TIP3   OH210832   5.138   1.472   0.032 -0.1417  0.4719 -0.1279
 3468TIP3    H110833   5.067   1.511   0.083  0.2811 -2.0621  2.5073
 3468TIP3    H210834   5.217   1.514   0.065  0.0718 -0.6749  0.8320
 3469TIP3   OH210835   5.478   3.072   1.448  0.5184  0.7172  0.2107
 3469TIP3    H110836   5.404   3.046   1.504  1.3164 -1.1399  0.4420
 3469TIP3    H210837   5.551   3.085   1.509  1.1813 -0.5161 -0.3063
 3470TIP3   OH210838   5.549   3.984   2.799  0.2687 -0.3903 -0.1253
 3470TIP3    H110839   5.645   3.979   2.808  0.1594 -0.3633  1.2283
 3470TIP3    H210840   5.534   4.060   2.744  1.0312 -0.4993 -0.5023
 3471TIP3   OH210841   5.053   1.738   2.310  0.0692  0.0938  0.0712
 3471TIP3    H110842   5.016   1.667   2.257  0.5726 -0.3672  0.3311
 3471TIP3    H210843   5.124   1.696   2.360 -0.9682  0.3098  1.7786
 3472TIP3   OH210844   1.228   4.431   3.135 -0.0017  0.1779 -0.2828
 3472TIP3    H110845   1.265   4.519   3.139 -1.5139  0.8627 -0.7811
 3472TIP3    H210846   1.193   4.416   3.223 -1.8025  1.0333 -0.8204
 3473TIP3   OH210847   0.254   2.689   4.136  0.1797  0.1377  0.0694
 3473TIP3    H110848   0.198   2.761   4.105 -0.5394 -0.3136  0.3014
 3473TIP3    H210849   0.192   2.621   4.162  0.8525 -0.4475  0.1399
 3474TIP3   OH210850   0.518   3.274   3.786  0.0999  0.4359  0.2082
 3474TIP3    H110851   0.610   3.262   3.808 -0.2809 -0.4802  1.3862
 3474TIP3    H210852   0.506   3.226   3.704  0.7620  0.8966 -0.1531
 3475TIP3   OH210853   4.936   4.078   0.791  0.5011 -0.2942  0.4374
 3475TIP3    H110854   4.897   4.079   0.704  0.3107  1.0434  0.5182
 3475TIP3    H210855   5.003   4.010   0.788  0.5470 -0.1935 -0.7691
 3476TIP3   OH210856   4.978   0.411   2.867  0.4723 -0.1171  0.2025
 3476TIP3    H110857   4.965   0.487   2.812 -0.6310 -0.2332  0.3055
 3476TIP3    H210858   4.893   0.394   2.907  1.4358  0.4273  2.5372
 3477TIP3   OH210859   2.205   4.895   4.772  0.2999 -0.1349  0.5446
 3477TIP3    H110860   2.218   4.803   4.749  0.0469 -0.6738  2.4177
 3477TIP3    H210861   2.237   4.944   4.697 -0.5483 -1.7825 -0.9135
 3478TIP3   OH210862   5.438   5.718   4.862 -0.2891  0.2635  0.1397
 3478TIP3    H110863   5.513   5.687   4.913  0.1732  1.0437 -0.0619
 3478TIP3    H210864   5.362   5.692   4.914  0.1260 -0.3414  0.4540
 3479TIP3   OH210865   1.228   5.112   1.839 -0.7355  0.2290 -0.3308
 3479TIP3    H110866   1.221   5.056   1.916 -0.5531  0.7338  0.0567
 3479TIP3    H210867   1.321   5.129   1.830 -0.3316 -2.7378 -2.7776
 3480TIP3   OH210868   3.300   5.385   3.853  0.4249  0.2348 -0.1979
 3480TIP3    H110869   3.354   5.393   3.774  0.0959  0.3688 -0.4121
 3480TIP3    H210870   3.217   5.349   3.821  0.5502 -0.3925  0.1958
 3481TIP3   OH210871   0.523   5.752   0.362 -0.8184 -0.2760 -0.0365
 3481TIP3    H110872   0.493   5.771   0.450 -0.3556  0.2550  0.0063
 3481TIP3    H210873   0.604   5.701   0.374 -0.6072  0.0304 -0.1529
 3482TIP3   OH210874   4.459   2.973   5.479  0.3529  0.5157  0.3613
 3482TIP3    H110875   4.417   2.933   5.556  0.3016  0.5389  0.3458
 3482TIP3    H210876   4.544   3.003   5.511  1.4560 -1.9194 -0.2691
 3483TIP3   OH210877   3.781   3.232   4.622  0.6300 -0.3561 -0.3441
 3483TIP3    H110878   3.815   3.240   4.533 -1.7460  2.1309 -1.0934
 3483TIP3    H210879   3.857   3.245   4.678  1.6164  1.2630 -2.0086
 3484TIP3   OH210880   4.334   2.423   3.815  0.1288  0.0879 -0.9473
 3484TIP3    H110881   4.343   2.430   3.720  0.9908 -0.6996 -0.9343
 3484TIP3    H210882   4.359   2.333   3.835  2.0327  0.8412  0.2478
 3485TIP3   OH210883   0.031   2.743   3.595 -0.3666  0.6453 -0.5950
 3485TIP3    H110884   0.104   2.682   3.605 -1.0630  0.2687  2.6323
 3485TIP3    H210885  -0.046   2.686   3.586 -0.5662  1.0419 -1.3943
 3486TIP3   OH210886   5.778   2.561   1.665  1.0550 -0.2377 -0.0353
 3486TIP3    H110887   5.792   2.619   1.590 -0.4640  0.0319 -0.1281
 3486TIP3    H210888   5.747   2.619   1.735  1.5664 -0.6293  0.5183
 3487TIP3   OH210889   6.095   2.004   3.308  0.1687 -0.0205 -0.1400
 3487TIP3    H110890   6.154   1.935   3.337 -0.2618 -0.6975 -0.8434
 3487TIP3    H210891   6.151   2.069   3.267  0.3503 -1.0365 -1.5216
 3488TIP3   OH210892   1.553   5.697   5.122  0.2613  0.6062  0.2816
 3488TIP3    H110893   1.473   5.648   5.098  0.4157  0.9640 -1.0007
 3488TIP3    H210894   1.522   5.767   5.179 -0.2634  0.3742  0.2858
 3489TIP3   OH210895   5.805   4.416   3.652  0.3091  0.0879 -0.3726
 3489TIP3    H110896   5.792   4.324   3.629  1.1584 -0.9083  2.8014
 3489TIP3    H210897   5.718   4.448   3.676  0.1347 -0.0868 -0.7677
 3490TIP3   OH210898   2.976   4.875   3.560 -0.0988  0.2654  0.3609
 3490TIP3    H110899   2.950   4.795   3.514  2.9765 -2.0875  2.4770
 3490TIP3    H210900   2.969   4.944   3.494 -1.1026 -2.0551 -2.0514
 3491TIP3   OH210901   0.178   2.303   3.588  0.2209  0.1379  0.0175
 3491TIP3    H110902   0.197   2.281   3.497 -1.7869 -0.9703 -0.1716
 3491TIP3    H210903   0.141   2.223   3.625 -2.9066  1.7634  0.6196
 3492TIP3   OH210904   5.790   5.983   3.448 -0.0872 -0.3303  0.1766
 3492TIP3    H110905   5.820   5.968   3.537 -1.4802 -0.2072  0.6842
 3492TIP3    H210906   5.867   6.014   3.401  0.7825 -0.9305  1.2008
 3493TIP3   OH210907   0.622   2.514   3.880 -0.0427 -0.5032  0.8790
 3493TIP3    H110908   0.642   2.462   3.958 -0.0430 -0.0167  1.2065
 3493TIP3    H210909   0.668   2.597   3.895  0.8579 -0.8158 -0.1418
 3494TIP3   OH210910   2.749   4.874   2.150 -0.2261  0.3597 -0.0583
 3494TIP3    H110911   2.747   4.943   2.084 -1.3497  0.5805  0.1882
 3494TIP3    H210912   2.756   4.921   2.233  0.2653  0.1191  0.0382
 3495TIP3   OH210913   0.237   0.107   1.463 -0.3240 -0.6221  0.4787
 3495TIP3    H110914   0.318   0.134   1.420  0.0825 -0.4996  1.3124
 3495TIP3    H210915   0.233   0.013   1.449 -0.3346 -0.5445 -0.0606
 3496TIP3   OH210916   1.456   4.571   3.928 -0.0720 -0.3333 -0.1608
 3496TIP3    H110917   1.480   4.657   3.964 -0.8799  0.1077 -0.6564
 3496TIP3    H210918   1.373   4.587   3.883 -2.3216 -2.1763  3.0686
 3497TIP3   OH210919   5.422   5.532   5.152  0.2822 -0.0853 -0.8374
 3497TIP3    H110920   5.413   5.576   5.236  0.4817  0.9714 -1.3728
 3497TIP3    H210921   5.344   5.476   5.146  0.4087 -0.3839  0.1645
 3498TIP3   OH210922   0.640   5.455   1.726 -0.4022  0.5131 -0.5981
 3498TIP3    H110923   0.655   5.483   1.816 -0.8685  0.7041 -0.5807
 3498TIP3    H210924   0.641   5.536   1.675 -0.8659  0.4736 -0.6690
 3499TIP3   OH210925   0.608   5.314   4.261  0.7500 -0.6948  0.3224
 3499TIP3    H110926   0.596   5.409   4.252 -0.6220 -0.8797 -0.0254
 3499TIP3    H210927   0.632   5.302   4.353 -0.4340 -0.1178  0.7239
 3500TIP3   OH210928   1.201   4.681   2.940 -0.4035  0.0005  0.0222
 3500TIP3    H110929   1.288   4.641   2.934 -1.1989 -1.9191  0.9894
 3500TIP3    H210930   1.184   4.714   2.852  1.0758 -0.0645 -0.3011
 3501TIP3   OH210931   5.018   3.008   5.031 -0.0304 -0.0861  0.3657
 3501TIP3    H110932   5.028   3.041   4.942  1.1893 -1.1734  0.0876
 3501TIP3    H210933   5.065   2.925   5.031 -1.4495 -0.9003  1.5814
 3502TIP3   OH210934   5.046   0.016   2.540  0.1873 -0.5804 -0.1584
 3502TIP3    H110935   4.982  -0.054   2.554  1.0498 -0.9386  2.1423
 3502TIP3    H210936   5.065   0.050   2.627 -0.3401  2.6831 -1.2576
 3503TIP3   OH210937   5.381   1.927   1.627 -0.5009  0.4132  0.2555
 3503TIP3    H110938   5.365   2.014   1.591  0.2016  1.3876  2.2326
 3503TIP3    H210939   5.409   1.875   1.552 -1.4069  1.7431 -1.0467
 3504TIP3   OH210940   2.490   4.924   1.706  0.3541  0.5552 -0.1653
 3504TIP3    H110941   2.568   4.880   1.741  0.2481  0.0569 -0.5527
 3504TIP3    H210942   2.465   4.872   1.630 -1.1203 -0.0701  0.7105
 3505TIP3   OH210943   5.213   4.029   3.221  0.1861 -0.8244  0.0607
 3505TIP3    H110944   5.193   3.962   3.155 -0.5835  0.8853 -1.4897
 3505TIP3    H210945   5.262   4.096   3.173  0.7556 -0.1775  1.5274
 3506TIP3   OH210946   5.089   5.541   1.529  0.6089 -0.2616  0.2203
 3506TIP3    H110947   5.156   5.608   1.521 -0.6379  1.4686  3.4658
 3506TIP3    H210948   5.133   5.466   1.569  0.9625  0.3345  0.9514
 3507TIP3   OH210949   5.034   5.045   1.360 -0.1418  0.4166 -0.2477
 3507TIP3    H110950   5.030   4.968   1.304 -0.4132  1.0401 -1.0984
 3507TIP3    H210951   5.063   5.012   1.445  0.1879 -0.5496 -0.7315
 3508TIP3   OH210952   2.997   5.052   2.292 -0.2784  0.3154 -0.1496
 3508TIP3    H110953   3.088   5.082   2.294 -0.6785  1.5553  0.0390
 3508TIP3    H210954   2.997   4.976   2.234  0.4627  1.7103 -2.0063
 3509TIP3   OH210955   1.106   3.545   5.082 -0.0989  0.3239  0.4997
 3509TIP3    H110956   1.163   3.486   5.032 -1.8779 -1.2023  0.2291
 3509TIP3    H210957   1.120   3.519   5.173  0.5834  0.8092  0.5369
 3510TIP3   OH210958   1.713   4.533   3.872 -0.1302 -0.0095 -0.2345
 3510TIP3    H110959   1.746   4.621   3.854 -0.3260 -0.3428 -2.2906
 3510TIP3    H210960   1.618   4.544   3.879  0.0337  0.3210  1.9644
 3511TIP3   OH210961   1.625   1.266   2.169  0.0701 -0.7361  0.0177
 3511TIP3    H110962   1.585   1.347   2.200  1.3630 -1.1047  2.7818
 3511TIP3    H210963   1.709   1.292   2.131  0.1352 -0.6980  0.1890
 3512TIP3   OH210964   1.771   4.656   3.622  0.1608  0.0059  0.1076
 3512TIP3    H110965   1.851   4.656   3.569  0.4129  0.5036  0.4920
 3512TIP3    H210966   1.791   4.714   3.695 -1.0004  1.1376 -0.4664
 3513TIP3   OH210967   0.174   0.028   1.894 -0.2719 -0.4496 -0.0655
 3513TIP3    H110968   0.091  -0.007   1.925 -1.0203  1.5790  0.3107
 3513TIP3    H210969   0.166   0.029   1.799 -0.6815 -0.2608 -0.0291
 3514TIP3   OH210970   1.842   4.495   0.832 -0.0757  0.6701 -0.6075
 3514TIP3    H110971   1.904   4.453   0.773 -0.8649  0.6341 -1.4209
 3514TIP3    H210972   1.809   4.569   0.782 -1.5015  0.0533 -0.5939
 3515TIP3   OH210973   0.167   2.678   1.849  0.5320 -0.0441  0.1401
 3515TIP3    H110974   0.095   2.731   1.882  1.7487  0.9952  1.1503
 3515TIP3    H210975   0.246   2.728   1.869  1.4473 -0.1951 -2.7482
 3516TIP3   OH210976   3.140   5.311   4.129  0.1245  0.2684 -0.1263
 3516TIP3    H110977   3.171   5.250   4.196 -0.0242  0.1274 -0.1863
 3516TIP3    H210978   3.142   5.260   4.048 -1.1047 -0.0068  0.0134
 3517TIP3   OH210979   0.224   5.658   3.841 -0.2645 -0.1223  0.3265
 3517TIP3    H110980   0.172   5.738   3.855 -0.1629 -0.3114  1.7949
 3517TIP3    H210981   0.240   5.657   3.747 -1.8596  0.6144  0.0190
 3518TIP3   OH210982   5.350   5.838   2.631 -0.3551 -0.0189  0.1113
 3518TIP3    H110983   5.269   5.850   2.680  1.1430 -2.0560  3.2000
 3518TIP3    H210984   5.399   5.919   2.645 -0.6624  0.0884  0.5809
 3519TIP3   OH210985   5.089   5.907   2.824 -0.6326 -0.1074 -0.0040
 3519TIP3    H110986   5.109   6.000   2.823  0.6391 -0.3625  0.8210
 3519TIP3    H210987   5.091   5.882   2.916  1.7490 -1.5097 -0.3959
 3520TIP3   OH210988   3.586   5.260   1.529  1.0623 -0.6857 -0.5695
 3520TIP3    H110989   3.627   5.275   1.614  1.8375 -1.4829 -0.8002
 3520TIP3    H210990   3.498   5.298   1.538  1.2212 -0.5530  0.5023
 3521TIP3   OH210991   2.531   5.450   3.757 -0.0336 -0.2879  0.1557
 3521TIP3    H110992   2.441   5.483   3.762  0.5003  1.3752 -0.7731
 3521TIP3    H210993   2.583   5.527   3.736  1.5310 -1.3774 -0.0109
 3522TIP3   OH210994   1.143   5.988   1.583  0.3314  0.2489  1.0014
 3522TIP3    H110995   1.096   6.050   1.638  1.1309 -0.7612  2.8815
 3522TIP3    H210996   1.185   5.928   1.645  3.1541  0.4432 -0.6475
 3523TIP3   OH210997   3.856   3.222   2.415 -0.1595  0.2139  0.2950
 3523TIP3    H110998   3.783   3.219   2.476 -1.6495 -0.0213 -1.4776
 3523TIP3    H210999   3.855   3.138   2.371  0.3433  0.7205 -0.7120
 3524TIP3   OH211000   3.366   5.077   3.035 -0.1838  0.0679  0.4422
 3524TIP3    H111001   3.363   5.154   3.092  3.3177  1.0527 -0.6153
 3524TIP3    H211002   3.380   5.003   3.094 -2.6664  0.2942  1.3780
 3525TIP3   OH211003   0.971   0.536   3.859  0.4827  0.0182 -0.1493
 3525TIP3    H111004   0.889   0.581   3.877  0.0830 -0.8905  0.3419
 3525TIP3    H211005   0.994   0.562   3.770 -1.4533 -1.3937 -1.0968
 3526TIP3   OH211006   0.812   5.823   2.380 -0.8368  0.4086  0.0605
 3526TIP3    H111007   0.798   5.914   2.407 -0.7891 -0.5337  3.5153
 3526TIP3    H211008   0.904   5.806   2.401 -1.4515 -1.0990  1.6875
 3527TIP3   OH211009   5.229   3.543   1.727 -0.2291  0.2040 -0.4838
 3527TIP3    H111010   5.162   3.586   1.673 -0.1739 -1.6796 -2.0790
 3527TIP3    H211011   5.184   3.525   1.810 -1.2573  0.3106 -1.0012
 3528TIP3   OH211012   1.373   1.565   0.982  0.5194  0.0709  0.0836
 3528TIP3    H111013   1.371   1.476   1.018 -2.1027 -0.8735 -2.1589
 3528TIP3    H211014   1.317   1.615   1.040  0.6942 -0.1439  0.4373
 3529TIP3   OH211015   3.598   2.882   3.712 -0.4481 -0.4078  0.0211
 3529TIP3    H111016   3.541   2.959   3.709  1.0841  0.7338 -0.5328
 3529TIP3    H211017   3.551   2.820   3.768 -2.5682  0.2126 -0.9927
 3530TIP3   OH211018   0.358   0.866   2.803  0.4073  0.1236 -0.1788
 3530TIP3    H111019   0.332   0.918   2.726  1.0016  0.2001 -0.3324
 3530TIP3    H211020   0.436   0.819   2.774  0.6139  0.1254  0.3683
 3531TIP3   OH211021   0.717   5.639   2.578 -0.1516 -0.0357  0.0191
 3531TIP3    H111022   0.622   5.652   2.585 -0.3288 -0.7568 -0.8442
 3531TIP3    H211023   0.745   5.702   2.512 -0.0103  0.2556  0.3568
 3532TIP3   OH211024   4.267   4.362   3.988  0.0655  0.2697 -0.5153
 3532TIP3    H111025   4.188   4.399   4.026 -0.0569  0.4585 -0.9530
 3532TIP3    H211026   4.250   4.268   3.982 -0.7983  0.5228 -2.2182
 3533TIP3   OH211027   1.958   4.895   1.717  0.4228 -0.1807 -0.4064
 3533TIP3    H111028   2.011   4.828   1.760 -0.8194 -0.0975  1.2910
 3533TIP3    H211029   1.885   4.847   1.679  0.6614 -0.0474 -1.0407
 3534TIP3   OH211030   3.413   0.015   2.531 -0.5960 -0.4283 -0.1334
 3534TIP3    H111031   3.441  -0.072   2.561  1.9811  1.2682  2.6143
 3534TIP3    H211032   3.431   0.014   2.437  1.4200 -2.1535  0.2187
 3535TIP3   OH211033   1.349   5.161   3.054 -0.3109  0.0421  0.3925
 3535TIP3    H111034   1.308   5.081   3.086  0.9551 -1.5549 -1.7712
 3535TIP3    H211035   1.286   5.197   2.991  0.3637 -0.9084 -0.8585
 3536TIP3   OH211036   0.593   3.745   3.152 -0.3195 -0.3278 -0.8230
 3536TIP3    H111037   0.597   3.653   3.124 -1.2157 -1.2352  1.8314
 3536TIP3    H211038   0.500   3.762   3.163 -0.1734  1.0388 -1.7125
 3537TIP3   OH211039   2.116   5.700   2.579 -0.2357 -0.1867  0.4661
 3537TIP3    H111040   2.031   5.742   2.573  0.4300  1.2043  0.5041
 3537TIP3    H211041   2.130   5.689   2.673 -0.1896 -0.0230  0.4787
 3538TIP3   OH211042   4.958   4.354   4.885 -0.1466  0.3112  0.4750
 3538TIP3    H111043   5.003   4.313   4.812 -0.7194  1.9678 -0.8448
 3538TIP3    H211044   4.938   4.282   4.945  2.0809 -0.7928 -0.0373
 3539TIP3   OH211045   0.937   2.351   4.149 -0.5863  0.5375 -0.2796
 3539TIP3    H111046   1.012   2.312   4.104 -0.8228 -0.6998  0.3720
 3539TIP3    H211047   0.962   2.442   4.163  0.8767  0.0885  0.0883
 3540TIP3   OH211048   0.179   1.857   3.040  0.2780  0.3437 -0.2280
 3540TIP3    H111049   0.199   1.768   3.011 -0.4984 -0.6193  2.0692
 3540TIP3    H211050   0.209   1.860   3.130 -2.1956  1.5398  0.5926
 3541TIP3   OH211051   1.590   4.807   3.941  0.4679  0.2888 -0.6494
 3541TIP3    H111052   1.596   4.892   3.896 -0.1872  1.1032  0.7529
 3541TIP3    H211053   1.553   4.829   4.027  1.1685 -1.3046  0.0680
 3542TIP3   OH211054   3.077   5.229   3.827 -0.4602  0.4542 -0.3732
 3542TIP3    H111055   2.990   5.189   3.828 -0.6121  0.7604 -1.0384
 3542TIP3    H211056   3.134   5.161   3.793 -0.7511  0.8455 -1.6894
 3543TIP3   OH211057   2.196   3.801   0.779  0.0639  0.8504  0.2825
 3543TIP3    H111058   2.161   3.778   0.692 -1.1663  1.5374  0.5821
 3543TIP3    H211059   2.262   3.868   0.762 -0.2946  1.1068 -0.1203
 3544TIP3   OH211060   2.474   4.302   6.009  0.0889  0.1282  0.4262
 3544TIP3    H111061   2.418   4.262   6.076  1.6437 -0.7572  1.2554
 3544TIP3    H211062   2.415   4.323   5.937 -1.1256 -1.9266  0.7616
 3545TIP3   OH211063   3.849   5.678   2.940  0.4173 -0.4708 -0.0300
 3545TIP3    H111064   3.847   5.596   2.892  2.1797 -0.0898 -0.7731
 3545TIP3    H211065   3.788   5.665   3.013 -2.3303 -1.0496 -2.3370
 3546TIP3   OH211066   5.465   3.796   2.413 -0.4347  0.4192 -0.1336
 3546TIP3    H111067   5.499   3.728   2.354  2.0055  2.7139 -1.4885
 3546TIP3    H211068   5.464   3.755   2.499 -3.2521 -2.7359 -1.5563
 3547TIP3   OH211069   2.979   0.987   5.413 -0.1936 -0.0111 -0.3100
 3547TIP3    H111070   3.047   0.920   5.407  0.6604  0.8140  0.0433
 3547TIP3    H211071   2.977   1.011   5.505 -1.8649 -0.9333 -0.0752
 3548TIP3   OH211072   1.468   4.228   2.507 -0.0685  0.7458  0.1683
 3548TIP3    H111073   1.440   4.251   2.596  2.9403  1.8755  0.8798
 3548TIP3    H211074   1.528   4.299   2.482  0.8910 -0.7471 -1.8904
 3549TIP3   OH211075   1.785   3.826   3.472  0.2210 -0.3023  0.4403
 3549TIP3    H111076   1.878   3.850   3.464  0.0622 -0.3560 -2.1392
 3549TIP3    H211077   1.741   3.881   3.407 -1.5407 -0.4132  1.5144
 3550TIP3   OH211078   1.855   3.618   4.258 -0.3239  0.7928  0.4087
 3550TIP3    H111079   1.906   3.683   4.306  1.9128 -1.3461  1.0387
 3550TIP3    H211080   1.843   3.656   4.171  0.2129  2.4044  1.0206
 3551TIP3   OH211081   4.388   4.530   4.164 -0.3139  0.1622  0.1452
 3551TIP3    H111082   4.346   4.470   4.102 -1.1699 -0.4583  1.3173
 3551TIP3    H211083   4.453   4.476   4.209  0.3658  0.6338 -0.2530
 3552TIP3   OH211084   0.331   3.928   3.354  0.0132  0.1066  0.0824
 3552TIP3    H111085   0.405   3.971   3.398 -0.1836  2.4072 -1.8043
 3552TIP3    H211086   0.254   3.964   3.397 -0.1067  0.2725 -0.2748
 3553TIP3   OH211087   0.716   3.200   4.258  0.0907 -0.0488  0.4064
 3553TIP3    H111088   0.694   3.110   4.234  1.7314 -0.7997  1.5829
 3553TIP3    H211089   0.632   3.246   4.262 -0.6496 -1.2269 -1.3885
 3554TIP3   OH211090   2.505   3.780   4.244 -0.2166  0.3770 -0.1768
 3554TIP3    H111091   2.595   3.783   4.213 -0.7082  2.6385 -1.4471
 3554TIP3    H211092   2.454   3.827   4.177 -2.3182 -0.6485  0.6280
 3555TIP3   OH211093   4.278   3.388   2.140 -0.0368 -0.8045 -0.4253
 3555TIP3    H111094   4.228   3.325   2.192 -0.6487 -0.7962 -0.9951
 3555TIP3    H211095   4.343   3.335   2.094  2.0369 -0.5448  2.0878
 3556TIP3   OH211096   5.428   2.691   4.526  0.3644  0.5866  0.4909
 3556TIP3    H111097   5.479   2.621   4.485  1.3535  2.2355 -1.1563
 3556TIP3    H211098   5.339   2.656   4.531  1.2014 -1.4947  1.4128
 3557TIP3   OH211099   1.438   5.595   5.420 -1.0563 -0.3879  0.0894
 3557TIP3    H111100   1.376   5.528   5.393 -0.2553 -0.9108 -0.4550
 3557TIP3    H211101   1.523   5.560   5.396 -0.6386  0.8574 -0.2596
 3558TIP3   OH211102   0.647   4.094   2.684 -0.0143  0.4968  0.1070
 3558TIP3    H111103   0.634   4.033   2.756  3.0105 -0.4516 -0.0629
 3558TIP3    H211104   0.587   4.064   2.615  0.5865 -1.6206  0.4557
 3559TIP3   OH211105   2.334   0.638   1.842  0.1348  0.4781 -0.7369
 3559TIP3    H111106   2.315   0.625   1.749 -2.1138  0.6065 -0.3250
 3559TIP3    H211107   2.367   0.553   1.872 -0.4010  0.0517 -1.3514
 3560TIP3   OH211108   5.759   1.720   3.675  0.7331 -0.3723  0.0005
 3560TIP3    H111109   5.713   1.659   3.617 -0.4119  1.4398 -1.0440
 3560TIP3    H211110   5.810   1.776   3.615  0.7632  0.5196  0.8476
 3561TIP3   OH211111   1.206   6.021   4.071 -0.2637 -0.6182  0.4502
 3561TIP3    H111112   1.217   6.019   3.976 -1.0956 -2.0002  0.3761
 3561TIP3    H211113   1.190   5.930   4.096  0.8920 -0.4205  2.0373
 3562TIP3   OH211114   0.360   6.029   4.372 -0.1083  0.0400 -0.0102
 3562TIP3    H111115   0.376   6.117   4.406  1.6827 -1.1309  2.3485
 3562TIP3    H211116   0.440   6.008   4.324  0.3019 -1.0198  1.1058
 3563TIP3   OH211117   2.035   5.540   4.761 -0.1317 -0.1975  0.5925
 3563TIP3    H111118   2.016   5.630   4.787 -1.9193 -0.1329 -0.8600
 3563TIP3    H211119   2.119   5.546   4.716  0.8107  0.3763  2.3504
 3564TIP3   OH211120   0.093   3.648   2.088  0.0142 -0.6636 -0.2086
 3564TIP3    H111121   0.125   3.559   2.101  0.0787 -0.6052  0.0417
 3564TIP3    H211122   0.086   3.684   2.177 -3.3528 -1.5807 -0.0152
 3565TIP3   OH211123   0.554   4.729   1.305  0.1992 -0.0860 -0.3552
 3565TIP3    H111124   0.516   4.649   1.340  1.0039 -0.7001 -0.8793
 3565TIP3    H211125   0.646   4.724   1.328  0.4887  0.1137 -1.4608
 3566TIP3   OH211126   1.076   4.973   2.871  0.0437 -0.5844 -0.5341
 3566TIP3    H111127   1.139   4.977   2.799 -0.6712  0.5295 -1.1123
 3566TIP3    H211128   1.015   4.903   2.846  0.0986 -0.5510 -0.7618
 3567TIP3   OH211129   2.276   4.700   4.334 -0.1775  0.0863  0.1442
 3567TIP3    H111130   2.297   4.788   4.302 -0.7104 -0.2976 -1.2966
 3567TIP3    H211131   2.204   4.671   4.278 -0.3486 -1.0707  0.9555
 3568TIP3   OH211132   2.061   5.815   3.090  0.0655 -0.0281 -0.0635
 3568TIP3    H111133   1.997   5.803   3.161  1.1497  0.6528  1.0498
 3568TIP3    H211134   2.127   5.874   3.127  0.6481  0.3518 -1.6515
 3569TIP3   OH211135   0.612   0.294   3.377  0.5009 -0.1905 -0.1063
 3569TIP3    H111136   0.689   0.328   3.331 -0.2153  0.3115 -0.9488
 3569TIP3    H211137   0.636   0.299   3.469  0.7609  1.8201 -0.2515
 3570TIP3   OH211138   1.342   5.581   1.567  0.5398  0.4465 -0.0103
 3570TIP3    H111139   1.379   5.619   1.487 -1.0512  1.7925 -0.1172
 3570TIP3    H211140   1.412   5.590   1.632  2.0947 -1.2435 -1.3680
 3571TIP3   OH211141   3.074   5.595   4.665 -0.1937 -0.0581  0.2774
 3571TIP3    H111142   3.074   5.523   4.729  1.8549 -1.6364 -1.4083
 3571TIP3    H211143   3.166   5.604   4.640 -0.9231  0.7222 -2.2194
 3572TIP3   OH211144   0.206   5.854   4.530  0.6743  0.3880  0.0421
 3572TIP3    H111145   0.230   5.917   4.462 -2.2048  3.4792  1.7315
 3572TIP3    H211146   0.118   5.825   4.506 -0.7185  2.1479  2.7939
 3573TIP3   OH211147   2.676   5.362   2.792 -0.2865  0.5446  0.0586
 3573TIP3    H111148   2.662   5.407   2.875 -1.3602 -0.3556  0.3775
 3573TIP3    H211149   2.602   5.389   2.737 -1.9402 -2.1934  0.8567
 3574TIP3   OH211150   1.870   6.085   3.241 -0.5026 -0.0783  0.0901
 3574TIP3    H111151   1.926   6.130   3.305 -0.4352 -1.0215  0.7082
 3574TIP3    H211152   1.869   5.994   3.271 -0.1962 -0.5969 -1.4530
 3575TIP3   OH211153   2.175   5.095   3.591 -0.0555 -0.1937 -0.7715
 3575TIP3    H111154   2.258   5.141   3.604  0.1070 -0.2945 -1.3865
 3575TIP3    H211155   2.199   5.002   3.595 -0.1338 -0.2222 -0.9461
 3576TIP3   OH211156   1.402   1.748   3.262  0.1731 -0.0953 -0.0423
 3576TIP3    H111157   1.488   1.738   3.220  0.6324  0.2731  0.8108
 3576TIP3    H211158   1.421   1.750   3.355 -0.6340  1.3330  0.0999
 3577TIP3   OH211159   1.958   3.280   3.787  0.1285 -0.4605  0.3967
 3577TIP3    H111160   2.050   3.274   3.761  0.1191 -2.4476  0.7331
 3577TIP3    H211161   1.926   3.359   3.744  1.6368 -0.5245 -0.8865
 3578TIP3   OH211162   0.202   4.673   3.758  0.3631 -0.1972 -0.3537
 3578TIP3    H111163   0.187   4.594   3.809 -0.5063 -1.1563 -2.0641
 3578TIP3    H211164   0.297   4.683   3.756  0.3852  0.5221  2.4215
 3579TIP3   OH211165   5.115   3.252   2.939  0.0466  0.2135 -0.2074
 3579TIP3    H111166   5.098   3.215   2.852 -0.0603 -0.2554  0.0149
 3579TIP3    H211167   5.067   3.195   2.999  1.4344 -0.4192  0.3061
 3580TIP3   OH211168   0.370   5.089   2.478 -0.2956 -0.0798  0.3251
 3580TIP3    H111169   0.291   5.043   2.451  0.8107 -1.9531  0.2339
 3580TIP3    H211170   0.359   5.102   2.572 -0.5488 -0.6674  0.3799
 3581TIP3   OH211171   1.928   5.683   2.315  0.3974 -0.2098  0.4759
 3581TIP3    H111172   1.870   5.685   2.391 -0.1376  1.2186  0.0410
 3581TIP3    H211173   2.007   5.729   2.343 -0.2861  1.4164 -0.2032
 3582TIP3   OH211174   1.179   4.850   2.426 -0.3616 -0.0865 -0.4340
 3582TIP3    H111175   1.131   4.933   2.423  0.4033  0.3992  0.5137
 3582TIP3    H211176   1.131   4.793   2.366 -2.1110  0.4128  0.4379
 3583TIP3   OH211177   2.031   5.564   3.515 -0.0109 -0.1788 -0.6611
 3583TIP3    H111178   2.123   5.581   3.492  0.8116 -1.2854  1.6534
 3583TIP3    H211179   2.023   5.469   3.513 -0.5009 -0.1956  1.2538
 3584TIP3   OH211180   1.459   5.966   1.024  0.0346 -0.1272 -0.4028
 3584TIP3    H111181   1.496   5.922   1.101 -0.5611  0.4190  0.2008
 3584TIP3    H211182   1.458   6.059   1.047  0.5168  0.1144 -1.3505
 3585TIP3   OH211183   2.117   0.517   3.387 -0.2987  0.7375 -0.0151
 3585TIP3    H111184   2.083   0.583   3.448 -0.7350 -0.4148  0.9910
 3585TIP3    H211185   2.168   0.568   3.324 -0.4242  2.0230  0.8946
 3586TIP3   OH211186   1.836   0.891   3.472 -0.0759 -0.3040  0.1111
 3586TIP3    H111187   1.874   0.978   3.486  1.2313 -0.9894  0.9133
 3586TIP3    H211188   1.781   0.902   3.395 -0.3434  1.3651  0.4993
 3587TIP3   OH211189   0.901   4.729   4.151  0.4945  0.5824  0.2615
 3587TIP3    H111190   0.928   4.810   4.108 -0.1082  0.9004  0.4721
 3587TIP3    H211191   0.854   4.680   4.083  2.2250 -0.3111 -0.3241
 3588TIP3   OH211192   1.236   4.935   2.672  0.3038  0.0516 -0.5379
 3588TIP3    H111193   1.214   4.900   2.586  0.4231 -4.3646  1.0577
 3588TIP3    H211194   1.324   4.971   2.662  0.2950 -0.3647 -2.2876
 3589TIP3   OH211195   4.962   0.402   5.721 -0.4340 -0.1459  0.0272
 3589TIP3    H111196   4.905   0.478   5.740 -0.2808 -0.4113  1.6042
 3589TIP3    H211197   5.050   0.439   5.717 -0.2466 -0.3557  1.7277
 3590TIP3   OH211198   4.728   4.832   1.232  0.4122 -0.0086 -1.0020
 3590TIP3    H111199   4.810   4.860   1.273 -0.1889 -0.9047  0.8678
 3590TIP3    H211200   4.723   4.738   1.252 -0.8817 -0.0366 -1.4506
 3591TIP3   OH211201   2.582   5.560   1.352  0.2250  0.4972 -0.6232
 3591TIP3    H111202   2.573   5.505   1.430  1.1740  0.0714 -0.8073
 3591TIP3    H211203   2.492   5.584   1.329 -0.0691  0.5111  0.5174
 3592TIP3   OH211204   5.852   4.778   2.473 -0.4793 -0.1293 -0.3437
 3592TIP3    H111205   5.836   4.852   2.532 -0.9309 -0.6776  0.2247
 3592TIP3    H211206   5.930   4.804   2.423 -1.3573  1.2661 -1.0227
 3593TIP3   OH211207   1.795   4.680   4.687  0.0259 -0.0772  0.2886
 3593TIP3    H111208   1.883   4.670   4.651 -0.1192  1.6288 -0.5775
 3593TIP3    H211209   1.798   4.764   4.734 -1.7036  1.0003 -1.4708
 3594TIP3   OH211210   0.811   5.149   3.994  0.2529 -0.5868 -0.3054
 3594TIP3    H111211   0.854   5.220   4.042  0.4602 -0.3956 -0.7704
 3594TIP3    H211212   0.729   5.187   3.964 -1.4641 -1.7128  2.7703
 3595TIP3   OH211213   1.350   5.147   0.252  0.0498 -0.1921  0.1963
 3595TIP3    H111214   1.383   5.190   0.172 -0.6110 -1.9785 -1.0727
 3595TIP3    H211215   1.367   5.210   0.322  1.3535  1.0975 -1.2390
 3596TIP3   OH211216   1.878   5.254   1.916 -0.2099  0.4586  0.3998
 3596TIP3    H111217   1.843   5.333   1.956 -1.0277 -0.2686  1.1321
 3596TIP3    H211218   1.926   5.210   1.986 -3.0773 -1.6849  1.0989
 3597TIP3   OH211219   0.995   4.135   3.449 -0.1705  0.1917  0.1112
 3597TIP3    H111220   1.065   4.081   3.485  0.5098  1.8132  1.2572
 3597TIP3    H211221   1.024   4.225   3.462 -0.5709  0.8467 -3.2271
 3598TIP3   OH211222   0.034   1.601   2.289 -0.2018  0.0949  0.2254
 3598TIP3    H111223  -0.001   1.558   2.367  1.1457 -1.0949  0.1853
 3598TIP3    H211224   0.115   1.643   2.318  0.1858 -0.1545 -0.4825
 3599TIP3   OH211225   2.096   4.392   2.246 -0.1398 -0.0828  0.0504
 3599TIP3    H111226   2.045   4.319   2.280  1.1624  0.1824  2.7042
 3599TIP3    H211227   2.178   4.353   2.217 -0.8700 -0.1657 -1.9725
 3600TIP3   OH211228   4.684   2.734   2.114 -0.6139 -0.2859  0.3785
 3600TIP3    H111229   4.625   2.769   2.047  1.0264  0.2637 -0.8178
 3600TIP3    H211230   4.720   2.812   2.157 -0.5781 -0.6093  0.9378
 3601TIP3   OH211231   1.267   4.136   4.309  0.6191  0.2015 -0.6932
 3601TIP3    H111232   1.205   4.074   4.271  0.2039  0.7553 -0.9314
 3601TIP3    H211233   1.324   4.161   4.235  0.1183  0.9064 -0.8478
 3602TIP3   OH211234   0.556   0.219   2.035 -0.1980 -0.1976  0.0980
 3602TIP3    H111235   0.645   0.199   2.063  0.4538  2.1402 -0.1841
 3602TIP3    H211236   0.555   0.200   1.941  0.1282  0.1538  0.0222
 3603TIP3   OH211237   4.070   3.843   2.024 -0.0325 -0.0955  0.4699
 3603TIP3    H111238   4.096   3.931   1.998  0.2240  0.3482  2.1715
 3603TIP3    H211239   3.997   3.856   2.084  0.1884 -1.0252  0.9543
 3604TIP3   OH211240   1.501   3.658   2.754  0.2007 -0.0537 -0.3664
 3604TIP3    H111241   1.411   3.689   2.752  1.0117  2.4862  1.1221
 3604TIP3    H211242   1.532   3.668   2.664 -0.3832  0.9563 -0.4605
 3605TIP3   OH211243   2.145   5.612   4.276 -0.3047 -0.2726  0.0689
 3605TIP3    H111244   2.225   5.649   4.238  0.7355 -3.1294 -0.6902
 3605TIP3    H211245   2.173   5.577   4.360 -1.0976  0.0136  0.4560
 3606TIP3   OH211246   1.443   4.600   2.384 -0.7590 -0.3677  0.8591
 3606TIP3    H111247   1.424   4.549   2.305  1.9570  0.7166 -0.5802
 3606TIP3    H211248   1.361   4.644   2.405 -2.2309 -2.6934  0.1902
 3607TIP3   OH211249   5.728   5.297   5.407 -0.5022  0.1572 -0.1824
 3607TIP3    H111250   5.729   5.375   5.352 -1.5310 -0.4062 -1.0243
 3607TIP3    H211251   5.686   5.230   5.353 -0.3659 -0.7518  0.8242
 3608TIP3   OH211252   0.673   3.982   5.438 -0.7724 -0.4041 -0.0264
 3608TIP3    H111253   0.671   3.978   5.343  0.1964 -0.5883 -0.0429
 3608TIP3    H211254   0.708   3.897   5.465 -2.5289 -0.9758  0.5634
 3609TIP3   OH211255   5.357   3.782   0.812 -0.4419 -0.0333  0.0648
 3609TIP3    H111256   5.295   3.849   0.783 -0.0094  0.9192  1.3209
 3609TIP3    H211257   5.328   3.702   0.767 -1.5117  0.7823 -0.7257
 3610TIP3   OH211258   1.127   3.940   2.767 -0.4473  0.3078 -0.2907
 3610TIP3    H111259   1.044   3.925   2.722 -0.5904 -0.3696  0.2022
 3610TIP3    H211260   1.180   3.863   2.746 -0.9240 -0.5737  1.6418
 3611TIP3   OH211261   5.834   4.240   2.111  0.4126 -0.6608 -0.0710
 3611TIP3    H111262   5.921   4.211   2.136 -0.2079  0.8285  4.2779
 3611TIP3    H211263   5.849   4.325   2.069  1.0391 -0.0317  1.3830
 3612TIP3   OH211264   4.492   3.312   1.633 -0.5354 -0.4090  0.0145
 3612TIP3    H111265   4.568   3.333   1.579 -1.6556  2.9007 -0.3929
 3612TIP3    H211266   4.450   3.238   1.589  1.5471 -1.2638 -0.5951
 3613TIP3   OH211267   4.749   3.047   1.189 -0.0202  0.4010  0.1302
 3613TIP3    H111268   4.763   3.141   1.202 -0.4325  0.3113  1.3200
 3613TIP3    H211269   4.725   3.014   1.276 -1.4319 -0.5375 -0.6047
 3614TIP3   OH211270   1.487   4.804   5.344 -0.6443  0.0839 -0.2221
 3614TIP3    H111271   1.547   4.757   5.285  0.2778  1.7466 -0.6541
 3614TIP3    H211272   1.545   4.856   5.399 -1.6845  1.9503 -0.8370
 3615TIP3   OH211273   2.383   2.936   2.513  0.0078  0.1437  0.1612
 3615TIP3    H111274   2.447   2.994   2.554 -0.8347  1.6673 -0.6134
 3615TIP3    H211275   2.314   2.995   2.482 -0.9781 -1.3043 -0.4593
 3616TIP3   OH211276   1.002   0.304   4.848 -0.3385  0.3332 -0.4366
 3616TIP3    H111277   0.909   0.317   4.829 -0.5759  0.8652  1.0139
 3616TIP3    H211278   1.006   0.218   4.890 -0.3113  0.7277  0.3794
 3617TIP3   OH211279   2.055   4.776   5.223  0.2745  0.1997 -0.1268
 3617TIP3    H111280   2.110   4.851   5.199  0.0403 -0.2101 -1.9699
 3617TIP3    H211281   2.081   4.756   5.313  0.5729  2.2898  0.2840
 3618TIP3   OH211282   1.966   3.319   2.346  0.5143  0.5277 -0.0251
 3618TIP3    H111283   1.957   3.405   2.387  2.5746  1.8656 -2.2572
 3618TIP3    H211284   2.001   3.263   2.415  1.6838  2.1589  0.7345
 3619TIP3   OH211285   4.095   5.940   3.553  0.0881  0.2321 -0.1240
 3619TIP3    H111286   4.127   5.880   3.621 -3.8289 -0.4655  1.2346
 3619TIP3    H211287   4.117   6.027   3.587 -1.3497 -0.1287  1.8082
 3620TIP3   OH211288   0.623   4.470   2.362 -0.1163  0.5139 -0.2450
 3620TIP3    H111289   0.579   4.545   2.322  0.1684  0.0228 -1.4791
 3620TIP3    H211290   0.629   4.405   2.293  1.0501 -0.0657  0.3793
 3621TIP3   OH211291   0.159   0.751   4.434 -0.3406  0.1757 -0.0769
 3621TIP3    H111292   0.081   0.747   4.378 -0.4435 -0.8133  0.1193
 3621TIP3    H211293   0.155   0.837   4.476 -0.6241  0.6538 -1.0670
 3622TIP3   OH211294   1.790   4.629   2.169 -0.1283 -0.0631 -0.0956
 3622TIP3    H111295   1.726   4.672   2.113 -0.6985 -0.8954 -0.0907
 3622TIP3    H211296   1.794   4.539   2.137  1.9871  0.2812 -0.9231
 3623TIP3   OH211297   0.047   4.701   2.036 -0.6243 -0.1453  0.1922
 3623TIP3    H111298   0.131   4.684   1.993 -1.0501  1.6196 -1.4424
 3623TIP3    H211299   0.025   4.791   2.009 -1.7162  0.4019  2.8230
 3624TIP3   OH211300   0.098   3.526   3.269 -0.0173  0.7928  0.1598
 3624TIP3    H111301   0.035   3.535   3.196 -0.7144 -0.0831  0.6334
 3624TIP3    H211302   0.043   3.521   3.347  0.6255 -0.2364  0.5592
 3625TIP3   OH211303   2.794   4.514   5.190  0.5114  0.4745  0.1041
 3625TIP3    H111304   2.813   4.527   5.097  0.7577 -0.2668  0.0526
 3625TIP3    H211305   2.802   4.420   5.204  0.2950  0.5584  0.8394
 3626TIP3   OH211306   0.763   3.405   5.689 -0.2867 -0.0626 -0.2954
 3626TIP3    H111307   0.698   3.401   5.759  0.2850  1.2250  0.3158
 3626TIP3    H211308   0.822   3.331   5.707  0.9579  1.3673  1.6861
 3627TIP3   OH211309   1.989   0.140   2.436  0.4192 -0.2684 -0.1958
 3627TIP3    H111310   1.990   0.235   2.446 -0.4417 -0.3797  1.0979
 3627TIP3    H211311   1.994   0.126   2.341  1.2978  1.0406 -0.3595
 3628TIP3   OH211312   0.042   5.981   3.931  0.0389 -0.0801 -0.1668
 3628TIP3    H111313   0.012   5.916   3.867  0.4478  0.9911 -1.4494
 3628TIP3    H211314  -0.034   5.997   3.986  0.1863 -2.3252  0.7437
 3629TIP3   OH211315   6.043   3.495   3.564 -0.8237 -0.3589  0.0143
 3629TIP3    H111316   6.110   3.540   3.617 -1.4875 -0.4633  0.9474
 3629TIP3    H211317   6.040   3.406   3.599 -2.5432  0.0714  1.0173
 3630TIP3   OH211318   1.422   0.346   3.575 -0.2026  0.3750  0.2385
 3630TIP3    H111319   1.372   0.297   3.640 -1.2773  0.8647 -0.1988
 3630TIP3    H211320   1.406   0.300   3.492 -0.5304  0.9436 -0.0238
 3631TIP3   OH211321   1.988   3.031   4.303  0.8095  0.0901  0.4647
 3631TIP3    H111322   2.044   2.969   4.351 -0.6541  0.1092  2.2987
 3631TIP3    H211323   2.037   3.113   4.303  1.8792 -0.5405 -0.1880
 3632TIP3   OH211324   1.127   3.512   4.151  0.3716 -0.3608  0.0801
 3632TIP3    H111325   1.084   3.553   4.075 -0.9897 -0.3016  0.8667
 3632TIP3    H211326   1.056   3.492   4.211  1.4356 -0.3891  1.3668
 3633TIP3   OH211327   5.544   3.164   5.387  0.4846 -0.7889 -0.3281
 3633TIP3    H111328   5.617   3.200   5.338  2.4020 -2.7501  1.0084
 3633TIP3    H211329   5.551   3.069   5.375 -1.7996 -1.0092 -0.1247
 3634TIP3   OH211330   5.222   3.171   2.215  0.3299  0.0837 -0.0474
 3634TIP3    H111331   5.166   3.121   2.275 -0.6376 -0.3231 -1.2661
 3634TIP3    H211332   5.231   3.257   2.256 -0.2841 -0.2036  0.7080
 3635TIP3   OH211333   5.682   5.312   4.908  0.3368 -0.0316  0.0927
 3635TIP3    H111334   5.699   5.389   4.963 -1.0286  1.2829 -1.2952
 3635TIP3    H211335   5.753   5.313   4.844  0.2862  0.1231  0.0379
 3636TIP3   OH211336   0.785   5.147   0.661  0.1006 -0.1315  0.0497
 3636TIP3    H111337   0.756   5.098   0.585 -0.5220 -0.1306  0.2810
 3636TIP3    H211338   0.848   5.090   0.704 -0.3468 -0.5762  0.1193
 3637TIP3   OH211339   1.422   4.218   3.026 -0.4330  0.6332  0.1641
 3637TIP3    H111340   1.332   4.184   3.024 -0.5579  0.9013  0.8934
 3637TIP3    H211341   1.419   4.288   3.091 -0.6179  3.2838 -2.5988
 3638TIP3   OH211342   1.588   4.455   0.416  0.7654 -0.4340  0.1805
 3638TIP3    H111343   1.587   4.551   0.411  2.5863 -0.3741  0.5887
 3638TIP3    H211344   1.568   4.435   0.507  0.0428 -0.4577  0.0185
 3639TIP3   OH211345   2.642   3.398   2.847  0.3614  0.5634 -0.2926
 3639TIP3    H111346   2.609   3.390   2.757 -1.8339  1.4820  0.3876
 3639TIP3    H211347   2.564   3.387   2.902  1.5453  0.7873  1.4759
 3640TIP3   OH211348   3.811   4.078   1.967 -0.2220  0.2206  0.6717
 3640TIP3    H111349   3.786   4.006   1.908  0.7972 -1.2000  1.9653
 3640TIP3    H211350   3.861   4.138   1.911  1.0926 -1.3134  0.1886
 3641TIP3   OH211351   4.142   4.887   1.494  0.0305  0.0157  0.2047
 3641TIP3    H111352   4.222   4.923   1.533 -0.9921  0.8764  1.5795
 3641TIP3    H211353   4.099   4.963   1.455  0.3770 -0.6217 -1.4363
 3642TIP3   OH211354   2.451   4.599   3.008 -0.5470 -0.2097 -0.1929
 3642TIP3    H111355   2.505   4.602   2.929 -0.3730 -0.3701 -0.0810
 3642TIP3    H211356   2.447   4.507   3.031  0.8187 -0.0137  0.9466
 3643TIP3   OH211357   3.815   5.423   3.237 -0.0154 -0.5259 -0.5450
 3643TIP3    H111358   3.869   5.357   3.279  1.1578 -0.2606 -1.5875
 3643TIP3    H211359   3.844   5.423   3.146 -0.1305  1.2855 -0.5970
 3644TIP3   OH211360   4.363   4.392   2.965 -0.3412  0.1079 -0.2907
 3644TIP3    H111361   4.349   4.340   3.043  1.5305 -1.0090 -0.6730
 3644TIP3    H211362   4.282   4.384   2.915 -1.3140  0.3399  1.2341
 3645TIP3   OH211363   2.132   1.970   2.366 -0.1497 -0.1354  0.4119
 3645TIP3    H111364   2.130   1.976   2.270 -3.1974 -0.2325  0.4249
 3645TIP3    H211365   2.125   1.876   2.385  2.4922 -0.3058  0.7504
 3646TIP3   OH211366   2.130   4.165   0.436 -0.2117 -0.1813  0.6005
 3646TIP3    H111367   2.210   4.217   0.430 -1.2941  1.5281  0.7239
 3646TIP3    H211368   2.121   4.145   0.529 -0.3739  0.3303  0.6945
 3647TIP3   OH211369   0.794   4.068   4.930  0.1277  0.0823  0.1225
 3647TIP3    H111370   0.710   4.113   4.936  0.7386  1.3280 -0.4137
 3647TIP3    H211371   0.817   4.072   4.838  0.4549 -0.8449  0.1631
 3648TIP3   OH211372   5.735   5.404   2.592  0.8444  0.7158  0.4013
 3648TIP3    H111373   5.758   5.339   2.525 -0.4780 -0.0472  0.6757
 3648TIP3    H211374   5.744   5.357   2.675  0.9051  1.1995  0.6724
 3649TIP3   OH211375   1.351   4.378   4.442  0.2033  0.1166  0.0528
 3649TIP3    H111376   1.362   4.451   4.380 -0.5520  0.9315  0.8679
 3649TIP3    H211377   1.342   4.301   4.386 -0.9804  0.9029 -0.8843
 3650TIP3   OH211378   0.878   0.922   4.956  0.3727 -0.2248  0.0250
 3650TIP3    H111379   0.803   0.979   4.944  0.6683  0.2833  0.5980
 3650TIP3    H211380   0.954   0.980   4.954  0.6755 -0.5898  0.5950
 3651TIP3   OH211381   0.710   2.871   0.179 -0.0194  1.0275 -0.6285
 3651TIP3    H111382   0.737   2.880   0.088  0.5583  1.0488 -0.4531
 3651TIP3    H211383   0.722   2.959   0.217  0.7392  0.7602 -0.2549
 3652TIP3   OH211384   1.041   4.178   3.939 -0.0303  0.0557  0.1160
 3652TIP3    H111385   1.119   4.135   3.904 -0.0917  0.3411 -0.3692
 3652TIP3    H211386   0.997   4.110   3.991 -0.6979 -0.7634 -1.5150
 3653TIP3   OH211387   5.795   0.775   5.973 -0.0676  0.1073  0.0942
 3653TIP3    H111388   5.814   0.711   5.905 -3.6817 -2.0402  0.9731
 3653TIP3    H211389   5.846   0.747   6.048  0.9253  0.2304 -0.5248
 3654TIP3   OH211390   2.599   3.968   3.212  0.4525  0.2044 -0.6405
 3654TIP3    H111391   2.550   3.891   3.238  1.4070  0.0188  0.6806
 3654TIP3    H211392   2.686   3.956   3.252  0.4649  2.1815  0.0135
 3655TIP3   OH211393   0.463   2.853   4.002  0.0084 -0.3481 -0.4621
 3655TIP3    H111394   0.419   2.787   4.055  0.9265  0.2428  1.0745
 3655TIP3    H211395   0.418   2.934   4.023 -0.2682 -0.2657 -1.3554
 3656TIP3   OH211396   5.526   4.012   1.925 -0.0860 -0.1591  0.5174
 3656TIP3    H111397   5.531   4.049   1.837 -1.4522  1.8196  1.2531
 3656TIP3    H211398   5.493   3.923   1.912  1.1136 -0.3958 -1.0770
 3657TIP3   OH211399   0.764   0.034   3.483  0.5298  0.0900  0.2773
 3657TIP3    H111400   0.710  -0.044   3.488  1.4162 -0.6860 -1.6756
 3657TIP3    H211401   0.710   0.104   3.520 -1.0138 -1.0453  0.1990
 3658TIP3   OH211402   1.280   3.540   1.650 -0.8104  0.2947 -0.5415
 3658TIP3    H111403   1.343   3.488   1.600 -0.2753 -0.0125  0.4491
 3658TIP3    H211404   1.333   3.594   1.708 -1.3723  1.7396 -1.3303
 3659TIP3   OH211405   2.453   4.837   0.597 -0.3565 -0.0086 -0.4805
 3659TIP3    H111406   2.528   4.787   0.566 -0.5018 -0.5008 -0.0255
 3659TIP3    H211407   2.399   4.850   0.519 -1.0859 -1.8797 -0.2930
 3660TIP3   OH211408   4.930   4.063   3.920 -0.0115  0.2839  0.1673
 3660TIP3    H111409   4.954   3.976   3.952 -1.0096  0.4065  1.2686
 3660TIP3    H211410   4.951   4.060   3.826 -1.8870 -1.8417 -0.2513
 3661TIP3   OH211411   2.287   4.809   3.611  0.3417 -0.3475 -0.2389
 3661TIP3    H111412   2.371   4.851   3.630 -0.5520  0.9344  0.9663
 3661TIP3    H211413   2.310   4.719   3.589  2.1380  0.2924 -1.1186
 3662TIP3   OH211414   1.484   0.006   4.972  0.6453 -0.0982  0.0166
 3662TIP3    H111415   1.507  -0.057   4.905  0.5557  0.4362 -0.5195
 3662TIP3    H211416   1.534   0.085   4.949  0.0407  0.3245  0.1467
 3663TIP3   OH211417   1.077   5.587   4.612 -0.2399 -0.6436  0.0373
 3663TIP3    H111418   1.152   5.574   4.554  0.1867 -0.0280  0.4424
 3663TIP3    H211419   1.003   5.548   4.565  0.6978 -3.1661  0.5777
 3664TIP3   OH211420   1.758   4.548   4.379  0.6055  0.3564  0.0878
 3664TIP3    H111421   1.838   4.510   4.417 -0.3292 -1.2515  0.4753
 3664TIP3    H211422   1.783   4.570   4.289  1.1279 -1.3106 -0.1884
 3665TIP3   OH211423   2.469   5.335   2.586 -0.1057  0.4191 -0.6231
 3665TIP3    H111424   2.436   5.264   2.530  0.9748 -0.9996  0.5012
 3665TIP3    H211425   2.390   5.377   2.619 -0.8068 -1.7065  0.4836
 3666TIP3   OH211426   0.651   4.271   3.772 -0.1617 -0.5852  0.2176
 3666TIP3    H111427   0.682   4.200   3.716  2.0058  1.5934 -1.4492
 3666TIP3    H211428   0.589   4.320   3.718  0.6050  0.5036  0.3099
 3667TIP3   OH211429   3.164   0.776   5.577 -0.5739  0.0016  0.5351
 3667TIP3    H111430   3.083   0.726   5.595  0.2787 -1.1795  1.1843
 3667TIP3    H211431   3.169   0.840   5.649 -0.1664 -0.9172  1.3431
 3668TIP3   OH211432   5.413   0.733   4.694 -0.6158 -0.0553  0.0270
 3668TIP3    H111433   5.478   0.778   4.639  0.3787  1.8403  2.6346
 3668TIP3    H211434   5.456   0.651   4.720  0.2408  0.5859  0.6664
 3669TIP3   OH211435   1.705   0.632   3.131  0.3948  0.5171  0.0207
 3669TIP3    H111436   1.737   0.702   3.075 -0.2359  1.3782  0.7216
 3669TIP3    H211437   1.778   0.570   3.135  0.7317  0.8285 -1.0943
 3670TIP3   OH211438   3.754   4.876   5.314 -0.3117  0.1658  0.1646
 3670TIP3    H111439   3.723   4.847   5.400  0.1058 -1.0511 -0.0891
 3670TIP3    H211440   3.789   4.797   5.273 -1.3860  0.5323 -1.5074
 3671TIP3   OH211441   2.827   3.595   1.332 -0.2736 -0.8844 -0.7537
 3671TIP3    H111442   2.913   3.615   1.370 -0.8988 -0.6985  0.6045
 3671TIP3    H211443   2.788   3.680   1.316 -0.5966 -0.9675 -0.4282
 3672TIP3   OH211444   0.659   5.692   1.571  0.3577 -0.0890 -0.6669
 3672TIP3    H111445   0.621   5.776   1.597  1.5157 -0.0643  1.0656
 3672TIP3    H211446   0.730   5.715   1.510 -0.0094  0.1152 -1.0165
 3673TIP3   OH211447   5.447   1.041   5.551  0.3485 -0.7232 -0.2304
 3673TIP3    H111448   5.460   1.102   5.478  1.5779 -0.2154  0.4094
 3673TIP3    H211449   5.356   1.014   5.543  0.1827  0.1228 -1.3521
 3674TIP3   OH211450   2.467   5.915   5.092 -0.3236 -0.0223 -0.3691
 3674TIP3    H111451   2.561   5.923   5.111 -0.0580 -0.7693 -1.3157
 3674TIP3    H211452   2.447   5.823   5.111 -1.7142  0.9733  3.4370
 3675TIP3   OH211453   1.753   4.383   3.577  0.0485  0.0749  0.1344
 3675TIP3    H111454   1.747   4.474   3.605  2.4402  0.0903  0.7136
 3675TIP3    H211455   1.824   4.346   3.630 -0.0253 -1.7663 -1.0100
 3676TIP3   OH211456   0.635   2.326   2.841 -0.2280 -0.3627  0.2230
 3676TIP3    H111457   0.556   2.373   2.866  0.9155  0.6004  2.1568
 3676TIP3    H211458   0.699   2.395   2.821 -0.2107 -1.1121 -2.5692
 3677TIP3   OH211459   0.349   2.925   1.835 -0.3516  0.3002  0.1019
 3677TIP3    H111460   0.268   2.972   1.855  0.3233  1.3920  0.2829
 3677TIP3    H211461   0.404   2.989   1.791 -0.6185 -1.2080 -2.5417
 3678TIP3   OH211462   0.292   2.676   2.353  1.1294  0.3688  0.2139
 3678TIP3    H111463   0.322   2.755   2.398 -0.4136  1.3990 -0.5505
 3678TIP3    H211464   0.286   2.610   2.422 -2.0872  2.1671  1.7300
 3679TIP3   OH211465   0.199   5.268   4.636  0.2851  0.3093 -0.5219
 3679TIP3    H111466   0.105   5.250   4.628  0.1990  0.5589 -0.0670
 3679TIP3    H211467   0.211   5.293   4.728  0.6316  1.2872 -0.8382
 3680TIP3   OH211468   2.061   3.749   2.304 -0.2705 -0.1511  0.9675
 3680TIP3    H111469   2.065   3.832   2.350  1.4609  0.8015 -0.8214
 3680TIP3    H211470   2.020   3.689   2.366 -3.1299  2.4134  1.6934
 3681TIP3   OH211471   4.222   1.009   0.338  0.5377  0.3577 -0.3731
 3681TIP3    H111472   4.255   1.087   0.292 -0.7971  0.8824 -0.4513
 3681TIP3    H211473   4.169   1.043   0.409 -1.7752 -0.4639 -1.6488
 3682TIP3   OH211474   6.053   4.137   1.611  0.1844 -0.2630  0.0168
 3682TIP3    H111475   5.995   4.163   1.682  0.6395  0.0026  0.2950
 3682TIP3    H211476   6.140   4.168   1.638  0.6772 -1.7443  0.1830
 3683TIP3   OH211477   1.722   3.101   1.026  0.0758 -0.5743 -0.1968
 3683TIP3    H111478   1.814   3.125   1.023  0.2523 -1.2248 -0.1907
 3683TIP3    H211479   1.710   3.061   1.112 -0.1369 -0.7756 -0.3187
 3684TIP3   OH211480   0.464   0.193   1.344  0.3436 -0.4161 -0.7322
 3684TIP3    H111481   0.537   0.239   1.303 -0.0797  0.2295 -0.7589
 3684TIP3    H211482   0.506   0.133   1.406  0.8185  1.9778  1.3560
 3685TIP3   OH211483   3.429   5.659   0.876 -0.2048 -0.3900  0.6342
 3685TIP3    H111484   3.446   5.643   0.784  2.3026  2.1313  0.6258
 3685TIP3    H211485   3.429   5.572   0.916 -0.6516 -1.4371 -1.5905
 3686TIP3   OH211486   0.525   4.983   5.040  0.2026 -0.0542 -0.1436
 3686TIP3    H111487   0.610   4.952   5.071 -0.6059 -1.3159  0.8727
 3686TIP3    H211488   0.481   5.016   5.118 -0.0488  1.0581 -0.7493
 3687TIP3   OH211489   0.509   0.493   5.199 -0.2917  0.0695  0.1483
 3687TIP3    H111490   0.565   0.562   5.235 -0.9837 -0.7711  2.9216
 3687TIP3    H211491   0.426   0.502   5.246 -0.7953 -1.8750 -0.3353
 3688TIP3   OH211492   0.421   5.325   1.706 -0.1577  0.6669 -0.1752
 3688TIP3    H111493   0.509   5.358   1.689 -0.0920  0.8308  0.4521
 3688TIP3    H211494   0.410   5.252   1.646  0.5654  0.3795  0.0402
 3689TIP3   OH211495   2.220   3.784   1.064 -0.1986 -0.0280 -0.2119
 3689TIP3    H111496   2.220   3.818   0.975  2.0646  0.5367 -0.0295
 3689TIP3    H211497   2.237   3.690   1.054 -0.7706 -0.1119 -0.4115
 3690TIP3   OH211498   0.582   6.069   3.816 -0.2099 -0.1454 -0.3598
 3690TIP3    H111499   0.662   6.085   3.867  1.1153 -1.6661 -1.8789
 3690TIP3    H211500   0.512   6.069   3.880  1.1132  0.3662  1.1331
 3691TIP3   OH211501   2.468   2.743   1.193 -0.0655 -0.7251  0.4967
 3691TIP3    H111502   2.438   2.756   1.283 -0.7053 -0.2074  0.2114
 3691TIP3    H211503   2.559   2.714   1.202  0.4511  1.0704  1.2401
 3692TIP3   OH211504   3.991   4.546   3.294  0.2117  0.4930  0.3487
 3692TIP3    H111505   4.035   4.612   3.241  0.8047 -0.8864 -0.9268
 3692TIP3    H211506   4.061   4.504   3.344 -0.0638  0.3590  0.6262
 3693TIP3   OH211507   4.345   2.361   1.778  0.1058 -1.0001  0.0943
 3693TIP3    H111508   4.411   2.431   1.774  0.0002 -0.9131 -0.1695
 3693TIP3    H211509   4.361   2.309   1.700 -1.0470 -0.1505 -0.7275
 3694TIP3   OH211510   1.671   3.419   1.965 -0.2377 -0.2860  0.0833
 3694TIP3    H111511   1.603   3.352   1.964 -0.6925  0.1656  0.6234
 3694TIP3    H211512   1.642   3.482   2.031 -0.0051  0.6408 -0.6926
 3695TIP3   OH211513   4.856   5.326   3.142  0.6828 -0.3216 -0.0686
 3695TIP3    H111514   4.906   5.249   3.170 -1.2389 -1.8691 -0.7977
 3695TIP3    H211515   4.823   5.304   3.055  0.4789  1.5144 -0.4857
 3696TIP3   OH211516   3.691   5.917   3.246  0.2571  0.1179 -0.0871
 3696TIP3    H111517   3.646   6.001   3.237 -1.1311 -0.7363 -1.3990
 3696TIP3    H211518   3.739   5.924   3.328 -1.6023  1.3785  0.9269
 3697TIP3   OH211519   2.964   4.549   1.931  0.6377 -0.0781  0.2568
 3697TIP3    H111520   3.042   4.501   1.960  0.9061  1.5763  2.3878
 3697TIP3    H211521   2.982   4.640   1.954 -1.8486  0.3575  0.6320
 3698TIP3   OH211522   2.213   5.678   3.325 -0.3407  1.0471  0.3558
 3698TIP3    H111523   2.255   5.593   3.338  0.0595  0.9674 -1.3062
 3698TIP3    H211524   2.270   5.723   3.262 -2.1654  1.3618 -1.1077
 3699TIP3   OH211525   2.670   2.571   5.635 -0.2079 -0.2704 -0.1939
 3699TIP3    H111526   2.673   2.478   5.658  1.8763 -0.4609 -1.1281
 3699TIP3    H211527   2.759   2.603   5.651 -0.9454  1.6187  0.3105
 3700TIP3   OH211528   1.841   3.723   5.009  0.0759 -0.0194 -0.2558
 3700TIP3    H111529   1.920   3.762   4.973 -1.2871  0.0670 -3.3149
 3700TIP3    H211530   1.835   3.759   5.098  3.5526 -0.2473  0.1310
 3701TIP3   OH211531   3.739   4.985   3.841  0.0994 -0.1118  0.2223
 3701TIP3    H111532   3.827   4.950   3.855  0.7166  0.8945 -1.0545
 3701TIP3    H211533   3.734   5.061   3.898  0.8187  1.0416 -1.2096
 3702TIP3   OH211534   1.839   3.307   2.823  0.0688 -0.3008  0.0259
 3702TIP3    H111535   1.807   3.348   2.743 -2.1644 -0.2385  0.9282
 3702TIP3    H211536   1.841   3.378   2.887  0.9483 -0.5569  0.3007
 3703TIP3   OH211537   2.317   5.446   3.392 -0.5156  0.0094 -0.4525
 3703TIP3    H111538   2.396   5.437   3.339  0.0474  0.5858  0.2908
 3703TIP3    H211539   2.295   5.356   3.417  1.0056  0.0024  0.9401
 3704TIP3   OH211540   4.728   2.013   3.355  0.2685 -0.1701  0.1051
 3704TIP3    H111541   4.695   1.966   3.432  0.8605 -0.3849  0.2264
 3704TIP3    H211542   4.730   2.105   3.383 -1.4688  0.0260 -0.3310
 3705TIP3   OH211543   3.463   3.850   0.790 -0.5010 -0.4613 -0.1046
 3705TIP3    H111544   3.557   3.839   0.801 -0.5889  0.9324  2.5978
 3705TIP3    H211545   3.432   3.764   0.760  1.4923 -1.2180 -0.0763
 3706TIP3   OH211546   2.616   3.947   0.540 -0.4829  0.2479  0.2276
 3706TIP3    H111547   2.574   3.963   0.455  0.2216  1.0498  0.0297
 3706TIP3    H211548   2.665   3.865   0.528 -0.1028  0.5436 -0.2457
 3707TIP3   OH211549   3.042   4.762   1.551  0.4661  0.1473  0.7905
 3707TIP3    H111550   3.102   4.834   1.571 -0.4549  1.4693 -1.0788
 3707TIP3    H211551   3.053   4.747   1.457 -0.8868 -0.7181  0.7536
 3708TIP3   OH211552   3.362   0.525   3.878 -0.4562  0.2027  0.7076
 3708TIP3    H111553   3.384   0.443   3.921  0.2015  0.3722  0.7126
 3708TIP3    H211554   3.430   0.534   3.810 -0.3311  0.8973  0.9232
 3709TIP3   OH211555   4.860   4.542   2.704 -0.0978 -0.5980  0.1056
 3709TIP3    H111556   4.856   4.601   2.779  0.5035 -1.3159  0.7153
 3709TIP3    H211557   4.815   4.588   2.634 -1.6460 -0.3805  1.2192
 3710TIP3   OH211558   2.468   3.084   2.055  0.1305  0.3829 -0.4112
 3710TIP3    H111559   2.463   3.029   2.134  0.3116  0.5657 -0.2747
 3710TIP3    H211560   2.464   3.021   1.983 -2.7052  0.3841 -0.3051
 3711TIP3   OH211561   1.413   4.557   3.623  0.1148 -0.1576 -0.0548
 3711TIP3    H111562   1.335   4.599   3.661  0.0600  0.8793 -1.2609
 3711TIP3    H211563   1.486   4.594   3.673 -0.1543 -1.0505  1.0081
 3712TIP3   OH211564   4.479   3.848   2.953  0.1986  0.2345 -0.0302
 3712TIP3    H111565   4.489   3.798   2.872  1.3356  2.3484 -1.2554
 3712TIP3    H211566   4.420   3.920   2.930 -0.5989  0.0592  1.4090
 3713TIP3   OH211567   4.744   3.659   4.098 -0.5149  0.6489  0.0910
 3713TIP3    H111568   4.738   3.626   4.188 -0.7265 -0.2851 -0.2665
 3713TIP3    H211569   4.666   3.624   4.054  0.9050 -1.0218 -1.1475
 3714TIP3   OH211570   2.429   3.759   2.331 -0.4921 -0.4792 -0.2903
 3714TIP3    H111571   2.347   3.805   2.309 -0.2035  0.2661  0.1824
 3714TIP3    H211572   2.479   3.822   2.381  0.7797 -0.6212 -1.3625
 3715TIP3   OH211573   2.965   3.625   2.758  0.1806  0.8892  0.3090
 3715TIP3    H111574   2.946   3.718   2.766 -1.5111  0.5702  0.1241
 3715TIP3    H211575   2.955   3.590   2.846 -1.6221  0.4471 -0.0612
 3716TIP3   OH211576   2.607   4.343   0.497 -0.4758  0.3401  0.1538
 3716TIP3    H111577   2.629   4.272   0.557 -1.0395 -0.4076 -0.5274
 3716TIP3    H211578   2.641   4.422   0.541  0.4691 -0.3791  0.7384
 3717TIP3   OH211579   3.261   4.464   1.488  0.5754  0.2539  0.5044
 3717TIP3    H111580   3.289   4.555   1.480  0.1924  0.3224 -0.1173
 3717TIP3    H211581   3.296   4.435   1.572  0.3141  1.1104  0.9100
 3718TIP3   OH211582   4.969   4.050   2.688  0.3080 -0.2735  0.1223
 3718TIP3    H111583   4.945   4.133   2.648 -1.6820  0.3247  2.5008
 3718TIP3    H211584   4.947   3.984   2.621 -2.4618  0.7476 -0.0272
 3719TIP3   OH211585   2.128   3.216   0.531  0.0382  0.2399  0.2874
 3719TIP3    H111586   2.149   3.138   0.480 -2.5304  1.0408 -2.0624
 3719TIP3    H211587   2.199   3.278   0.511  0.9351 -0.6936  0.5049
 3720TIP3   OH211588   3.478   4.668   1.934 -0.3356  0.4801  0.0814
 3720TIP3    H111589   3.530   4.748   1.932 -0.2968  0.4813  0.8561
 3720TIP3    H211590   3.387   4.698   1.925 -0.5998  0.9157  3.3480
 3721TIP3   OH211591   2.165   2.944   5.284  0.4868  0.0974 -0.4877
 3721TIP3    H111592   2.245   2.893   5.294  1.3621  0.8591 -3.2046
 3721TIP3    H211593   2.176   2.990   5.200 -2.5585  0.6142 -0.6538
 3722TIP3   OH211594   1.470   4.096   1.246  0.0180  0.5210 -0.1848
 3722TIP3    H111595   1.554   4.050   1.240 -0.1307  0.1828  0.2646
 3722TIP3    H211596   1.407   4.034   1.209 -0.2228  0.2527  0.6628
 3723TIP3   OH211597   2.694   4.562   0.893 -0.3638  0.4967 -0.0614
 3723TIP3    H111598   2.749   4.489   0.923 -1.1364 -0.3149 -0.6001
 3723TIP3    H211599   2.610   4.522   0.873 -0.9494  1.6305  0.1069
 3724TIP3   OH211600   0.057   4.893   0.247  0.0616  0.0130  0.3519
 3724TIP3    H111601   0.023   4.969   0.294 -1.3806 -0.4441  0.0707
 3724TIP3    H211602   0.118   4.929   0.184  0.7028  0.7872  1.3938
 3725TIP3   OH211603   1.647   5.542   2.345 -0.0270 -0.1535  0.2362
 3725TIP3    H111604   1.599   5.525   2.426 -0.9438 -0.7199 -0.4192
 3725TIP3    H211605   1.624   5.632   2.322  1.3667  0.5058  1.3606
 3726TIP3   OH211606   0.970   4.738   3.101  0.4055  0.4705 -0.1512
 3726TIP3    H111607   1.046   4.730   3.043 -1.0711 -1.2210 -1.9487
 3726TIP3    H211608   0.981   4.667   3.165  0.4740  0.3720 -0.2713
 3727TIP3   OH211609   4.835   4.038   2.227 -0.4308  0.0190 -0.2570
 3727TIP3    H111610   4.779   4.053   2.303 -2.0254  0.5499 -1.5146
 3727TIP3    H211611   4.839   4.123   2.183 -1.9124 -0.9523 -2.3513
 3728TIP3   OH211612   3.139   4.704   1.292  0.3093 -0.4599  0.1335
 3728TIP3    H111613   3.147   4.670   1.202  0.0436 -2.1900  0.7457
 3728TIP3    H211614   3.229   4.706   1.325  0.5196  1.1368 -0.4999
 3729TIP3   OH211615   4.163   5.806   3.792 -1.0912  0.5469  0.4324
 3729TIP3    H111616   4.074   5.774   3.779  0.4925 -3.5806 -1.1188
 3729TIP3    H211617   4.192   5.764   3.873 -0.0072  0.5060  0.0330
 3730TIP3   OH211618   3.455   3.174   4.581 -0.0799  0.3534 -0.1413
 3730TIP3    H111619   3.433   3.216   4.498  0.8040  0.7061 -0.2004
 3730TIP3    H211620   3.463   3.246   4.643  1.4677  0.3006 -0.2516
 3731TIP3   OH211621   2.442   4.432   1.970 -0.1369  0.0035  0.2174
 3731TIP3    H111622   2.496   4.430   1.891 -2.0205  1.2874 -1.1471
 3731TIP3    H211623   2.475   4.507   2.019  0.5431 -0.3386  0.2894
 3732TIP3   OH211624   4.158   4.617   2.538  0.0418 -0.3890  0.1743
 3732TIP3    H111625   4.139   4.558   2.465 -3.2366 -0.0616  0.7147
 3732TIP3    H211626   4.073   4.648   2.568  1.5075  2.0259  2.0830
 3733TIP3   OH211627   3.892   4.704   3.916 -0.0866 -0.0209 -0.1800
 3733TIP3    H111628   3.961   4.765   3.890 -0.4508  0.4030 -0.1489
 3733TIP3    H211629   3.842   4.690   3.836 -0.8082  0.7633  0.1357
 3734TIP3   OH211630   3.548   4.267   3.010 -0.1139 -0.1202 -0.6280
 3734TIP3    H111631   3.463   4.237   3.043 -0.3903  1.1596 -0.1463
 3734TIP3    H211632   3.527   4.323   2.936  0.2519  1.0852  0.1738
 3735TIP3   OH211633   2.881   5.657   0.049 -0.3115  0.2125 -0.1457
 3735TIP3    H111634   2.885   5.719   0.121 -0.7525 -0.1638  0.2055
 3735TIP3    H211635   2.965   5.666   0.004  0.3342 -0.2071  0.9733
 3736TIP3   OH211636   4.774   5.116   0.144  0.0897  0.1382 -0.4907
 3736TIP3    H111637   4.754   5.187   0.082  1.2489 -1.3517 -2.6575
 3736TIP3    H211638   4.750   5.036   0.097  1.2032 -1.0483  0.9136
 3737TIP3   OH211639   0.913   4.983   4.905  0.7294  0.2950 -0.0322
 3737TIP3    H111640   0.992   5.016   4.949  0.5313  0.4125  0.2346
 3737TIP3    H211641   0.863   4.939   4.974  0.0024  1.2284  0.0532
 3738TIP3   OH211642   6.023   5.379   4.414 -0.4208  0.1554  0.3989
 3738TIP3    H111643   6.100   5.340   4.455 -0.2059 -0.4698 -0.5888
 3738TIP3    H211644   5.975   5.305   4.377 -1.0474  0.6336  0.2413
 3739TIP3   OH211645   3.478   3.448   2.653  0.0072  0.3308 -0.3878
 3739TIP3    H111646   3.439   3.368   2.618  0.8921 -1.6776  2.8479
 3739TIP3    H211647   3.407   3.493   2.698  0.1156 -0.2266  0.3583
 3740TIP3   OH211648   3.032   2.939   3.198  0.6332 -0.0108 -0.2769
 3740TIP3    H111649   2.983   2.858   3.216  1.7161 -0.9553 -1.4611
 3740TIP3    H211650   3.124   2.911   3.194  1.0773  1.3864 -0.1204
 3741TIP3   OH211651   2.844   3.932   3.400  0.3351  0.4394 -0.2690
 3741TIP3    H111652   2.913   3.984   3.441  1.0407 -0.2641 -0.5441
 3741TIP3    H211653   2.867   3.841   3.421 -1.5822  0.2742  1.3320
 3742TIP3   OH211654   2.401   5.228   3.658 -0.0517 -0.0273 -0.4593
 3742TIP3    H111655   2.454   5.148   3.654 -0.8829 -0.5568 -0.9191
 3742TIP3    H211656   2.459   5.292   3.699  0.3606 -1.0712  0.6318
 3743TIP3   OH211657   4.385   2.392   1.211 -0.1263  0.0565 -0.3911
 3743TIP3    H111658   4.298   2.353   1.215 -0.7146  1.5216  1.6871
 3743TIP3    H211659   4.377   2.461   1.145 -0.4491 -0.0026 -0.4162
 3744TIP3   OH211660   3.622   0.275   5.413  0.1937  0.4333 -0.5957
 3744TIP3    H111661   3.605   0.367   5.395 -3.3756  0.0810  0.5242
 3744TIP3    H211662   3.626   0.269   5.508  1.3636 -0.4290 -0.6924
 3745TIP3   OH211663   2.459   3.640   1.005 -0.2909 -0.3706  0.4684
 3745TIP3    H111664   2.468   3.570   1.070  0.6820 -2.2238 -1.6083
 3745TIP3    H211665   2.524   3.705   1.031  1.3006 -1.8863  0.3900
 3746TIP3   OH211666   2.023   4.796   3.450  0.0372 -0.2552  0.5617
 3746TIP3    H111667   2.035   4.755   3.364  0.3332  1.3900 -0.1979
 3746TIP3    H211668   2.091   4.756   3.505 -0.0769 -1.2269  0.0093
 3747TIP3   OH211669   4.097   4.760   3.167  0.1307 -0.2295 -0.0794
 3747TIP3    H111670   4.115   4.849   3.198 -0.0632 -0.4025  0.5441
 3747TIP3    H211671   4.088   4.769   3.072 -1.7294  0.7202  0.1793
 3748TIP3   OH211672   2.459   4.375   3.372 -0.1961  0.2184 -0.1072
 3748TIP3    H111673   2.481   4.307   3.309  1.5403 -1.1449  1.9014
 3748TIP3    H211674   2.505   4.453   3.341  0.2105 -0.2990 -0.8064
 3749TIP3   OH211675   3.707   3.311   2.061  0.4408 -0.0433  0.0835
 3749TIP3    H111676   3.772   3.299   1.992  1.0663  0.3051  0.6059
 3749TIP3    H211677   3.755   3.354   2.132 -0.3359  0.1331  0.5094
 3750TIP3   OH211678   3.455   1.488   1.870  0.2882 -0.1689 -0.1700
 3750TIP3    H111679   3.495   1.402   1.858  0.9913  0.1208  0.0566
 3750TIP3    H211680   3.361   1.473   1.857  0.4808 -0.8314 -0.8500
 3751TIP3   OH211681   1.521   4.477   3.111 -0.2760  0.3517  0.7132
 3751TIP3    H111682   1.515   4.479   3.207  0.6612 -1.3037  0.8309
 3751TIP3    H211683   1.603   4.430   3.093 -2.5366 -3.2494 -0.8878
 3752TIP3   OH211684   2.596   3.999   2.055 -0.5605  0.0481  0.0418
 3752TIP3    H111685   2.642   3.922   2.089  1.0735  0.7090 -0.6257
 3752TIP3    H211686   2.663   4.067   2.051 -1.6303  1.0717 -0.8197
 3753TIP3   OH211687   3.287   4.340   2.562 -0.4062  0.3298  0.5059
 3753TIP3    H111688   3.347   4.277   2.522 -1.7226 -0.7762  0.2508
 3753TIP3    H211689   3.321   4.425   2.536  0.4480 -0.3151 -0.5297
 3754TIP3   OH211690   1.724   0.352   0.393 -0.0693 -0.1846  0.0887
 3754TIP3    H111691   1.802   0.365   0.446  0.0362  0.6509 -0.2650
 3754TIP3    H211692   1.755   0.360   0.302 -0.2811 -1.3954 -0.1072
 3755TIP3   OH211693   1.082   5.053   0.256  0.8798  0.2830 -0.0410
 3755TIP3    H111694   1.154   5.099   0.300 -0.0745  1.5901  0.1784
 3755TIP3    H211695   1.086   5.084   0.166 -1.0610  2.4252  0.5813
 3756TIP3   OH211696   2.923   3.772   2.462  0.0454  0.1393  0.1093
 3756TIP3    H111697   2.857   3.717   2.504  1.2608 -1.5594 -0.1452
 3756TIP3    H211698   2.948   3.835   2.529 -2.3431  1.2684 -0.0264
 3757TIP3   OH211699   2.629   4.823   1.307  0.2351 -0.9811  0.5096
 3757TIP3    H111700   2.644   4.764   1.381 -0.2420 -0.2007  1.2362
 3757TIP3    H211701   2.560   4.780   1.256 -0.3540 -0.8922  1.2244
 3758TIP3   OH211702   2.313   5.890   5.586  0.1534  0.1009 -0.2559
 3758TIP3    H111703   2.323   5.811   5.639 -2.5414  0.3111  0.6326
 3758TIP3    H211704   2.228   5.879   5.543  0.1288  2.1249 -0.7707
 3759TIP3   OH211705   2.632   4.941   4.984  0.6097  0.3266  0.6851
 3759TIP3    H111706   2.683   5.010   4.943 -0.3620 -0.2085 -1.5119
 3759TIP3    H211707   2.620   4.876   4.915 -2.4880  0.1490  1.3240
 3760TIP3   OH211708   2.479   4.641   1.149  0.2998 -0.5359  0.3416
 3760TIP3    H111709   2.487   4.548   1.128  0.6544 -1.0183  2.4603
 3760TIP3    H211710   2.534   4.685   1.086  0.5593 -1.8187 -0.3495
 3761TIP3   OH211711   2.054   2.927   0.636 -0.3029 -0.3879 -0.5448
 3761TIP3    H111712   2.117   2.874   0.685 -1.1181 -2.3541 -1.5933
 3761TIP3    H211713   1.996   2.962   0.703 -1.3929 -3.0422 -0.0353
 3762TIP3   OH211714   5.075   5.142   0.810  0.0740 -0.0350 -0.0469
 3762TIP3    H111715   5.005   5.207   0.815  0.3592  0.1877  1.2816
 3762TIP3    H211716   5.125   5.167   0.732 -0.0948  1.0695  0.1882
 3763TIP3   OH211717   3.647   1.126   0.354  0.4896  0.3296 -0.3868
 3763TIP3    H111718   3.655   1.042   0.309 -0.2229 -0.6275  1.2011
 3763TIP3    H211719   3.671   1.106   0.445 -2.1534  1.2665  0.5656
 3764TIP3   OH211720   2.713   4.604   2.763  0.2847 -0.0038 -0.1278
 3764TIP3    H111721   2.643   4.654   2.721  0.8745 -0.5114 -1.7497
 3764TIP3    H211722   2.791   4.659   2.752  0.5936 -0.4918 -0.4146
 3765TIP3   OH211723   4.039   2.145   1.707  0.1828 -0.3275 -0.1734
 3765TIP3    H111724   4.008   2.122   1.794  1.7648 -1.0719  0.2159
 3765TIP3    H211725   3.967   2.121   1.648 -0.2921 -1.2458  0.7687
 3766TIP3   OH211726   2.816   4.800   3.249  0.1011 -0.2063 -0.0880
 3766TIP3    H111727   2.759   4.877   3.253  2.9121  1.9734 -0.8316
 3766TIP3    H211728   2.865   4.811   3.168  0.0038 -3.2053 -0.5891
 3767TIP3   OH211729   2.185   3.646   2.045  0.2801 -0.1246  0.3048
 3767TIP3    H111730   2.123   3.574   2.035  1.1481 -0.8749  0.2143
 3767TIP3    H211731   2.171   3.677   2.135 -0.9528  0.4147 -0.0612
 3768TIP3   OH211732   1.901   3.572   2.456 -0.2745  0.2290 -0.1233
 3768TIP3    H111733   1.808   3.554   2.470  0.1182 -1.2817  0.7003
 3768TIP3    H211734   1.937   3.579   2.544  1.0231 -2.7043 -0.3701
 3769TIP3   OH211735   3.197   3.843   0.327 -0.1957  0.6430  0.1280
 3769TIP3    H111736   3.208   3.805   0.239  2.0502  1.5787 -0.0232
 3769TIP3    H211737   3.200   3.767   0.386  1.5912  0.2925 -0.3772
 3770TIP3   OH211738   2.684   4.816   0.975  0.5411  0.9246  0.7491
 3770TIP3    H111739   2.691   4.870   0.897 -0.8977 -0.1467 -0.1327
 3770TIP3    H211740   2.706   4.727   0.945 -2.5095  0.0554  0.9861
 3771TIP3   OH211741   2.324   0.984   5.840 -0.1198  0.6099  0.5215
 3771TIP3    H111742   2.322   0.903   5.789 -2.2647  0.3562  0.9827
 3771TIP3    H211743   2.399   1.033   5.805 -0.6113 -0.2618 -1.7662
 3772TIP3   OH211744   3.381   4.604   2.487 -0.0290 -0.2040  0.0906
 3772TIP3    H111745   3.386   4.620   2.393  1.4386 -1.2535 -0.0281
 3772TIP3    H211746   3.443   4.667   2.525  1.3905 -1.5774  0.1067
 3773TIP3   OH211747   2.976   5.359   1.408  0.2691 -0.4466 -0.5144
 3773TIP3    H111748   2.944   5.353   1.318  0.7963 -2.0664 -0.6202
 3773TIP3    H211749   3.040   5.430   1.406  0.0727 -0.2832 -1.3589
 3774TIP3   OH211750   3.277   3.984   0.618  0.0756 -0.1096 -0.2210
 3774TIP3    H111751   3.289   3.915   0.553 -0.5668 -1.0914  0.6752
 3774TIP3    H211752   3.344   3.966   0.684 -1.5152 -1.2592  1.1416
 3775TIP3   OH211753   5.914   4.037   3.648  0.4031  0.3631  0.0808
 3775TIP3    H111754   5.951   3.960   3.605 -1.3170  0.1013 -0.9454
 3775TIP3    H211755   5.835   4.056   3.599  0.4714  2.4059  0.7472
 3776TIP3   OH211756   2.010   4.395   0.632  0.3942  0.0734 -0.0798
 3776TIP3    H111757   1.979   4.410   0.543 -0.1032  0.0327  0.0865
 3776TIP3    H211758   2.045   4.306   0.630 -0.6119 -0.3296  0.0407
 3777TIP3   OH211759   3.913   3.817   4.030 -0.8348  0.1509  0.5273
 3777TIP3    H111760   3.930   3.855   3.943 -1.4298  4.1206  2.0335
 3777TIP3    H211761   3.862   3.738   4.012 -1.4982  1.2238 -2.7211
 3778TIP3   OH211762   1.771   5.878   0.599  0.2570 -0.5279  0.1524
 3778TIP3    H111763   1.752   5.899   0.691  1.5620 -0.1589  0.3357
 3778TIP3    H211764   1.787   5.963   0.558 -3.0256 -0.4331 -1.0555
 3779TIP3   OH211765   4.020   0.895   2.746  0.0508  0.1549  0.0517
 3779TIP3    H111766   4.025   0.830   2.676  0.2638  0.4700 -0.2239
 3779TIP3    H211767   4.111   0.915   2.767 -0.0118  0.0204  0.4582
 3780TIP3   OH211768   2.116   3.641   4.853  0.4359 -0.7175  0.4606
 3780TIP3    H111769   2.138   3.552   4.883  1.1094 -0.6559  0.1465
 3780TIP3    H211770   2.027   3.632   4.818 -0.1243 -0.9212  1.8994
 3781TIP3   OH211771   5.240   1.332   0.816 -0.5342  0.3121 -0.5546
 3781TIP3    H111772   5.168   1.273   0.837 -0.1392  0.7039  2.0359
 3781TIP3    H211773   5.315   1.274   0.800 -0.8940 -0.0112 -1.0526
 3782TIP3   OH211774   3.838   5.071   3.405 -0.5741 -0.1170  0.0362
 3782TIP3    H111775   3.896   5.142   3.379 -1.1607  0.4227  0.1968
 3782TIP3    H211776   3.776   5.062   3.333  1.3709 -2.5545 -1.4228
 3783TIP3   OH211777   4.524   1.136   2.538  0.3479 -0.0582  0.8191
 3783TIP3    H111778   4.561   1.057   2.576  1.4191 -0.2560 -0.5843
 3783TIP3    H211779   4.431   1.116   2.524  0.8001 -1.3854 -0.3454
 3784TIP3   OH211780   3.427   5.462   1.955 -0.5357 -0.1809 -0.1336
 3784TIP3    H111781   3.349   5.432   1.909 -2.3138  2.8916  0.7409
 3784TIP3    H211782   3.405   5.455   2.047  0.2478  0.5468  0.1198
 3785TIP3   OH211783   1.064   3.180   3.298  0.1581 -0.6802  0.0482
 3785TIP3    H111784   1.090   3.090   3.280  1.0367 -0.5544  0.6190
 3785TIP3    H211785   1.031   3.178   3.387 -1.4238 -0.7498 -0.5261
 3786TIP3   OH211786   3.186   5.844   2.306 -0.1274  0.4492 -0.1857
 3786TIP3    H111787   3.131   5.894   2.365 -0.2493  1.1512 -0.8843
 3786TIP3    H211788   3.201   5.761   2.351 -1.3233  0.4576  0.2391
 3787TIP3   OH211789   2.920   1.227   0.686  0.3426  0.1800 -0.3107
 3787TIP3    H111790   2.847   1.274   0.728  1.3245  0.3118  1.3063
 3787TIP3    H211791   2.947   1.285   0.615 -0.3360  0.7066 -0.1529
 3788TIP3   OH211792   1.517   4.210   0.867  0.5294  0.3083  0.2509
 3788TIP3    H111793   1.561   4.218   0.951 -0.1768  0.3053  0.6260
 3788TIP3    H211794   1.530   4.118   0.842  3.6105  1.0881 -1.2593
 3789TIP3   OH211795   1.374   4.588   0.046 -0.1704  0.6766  0.1619
 3789TIP3    H111796   1.395   4.665  -0.006 -0.2046  0.4621 -0.1728
 3789TIP3    H211797   1.431   4.520   0.011  0.8350  0.8898  1.3614
 3790TIP3   OH211798   3.631   2.681   3.059 -0.4198  0.2195  0.3689
 3790TIP3    H111799   3.622   2.715   3.148  0.8941  0.8392  0.2735
 3790TIP3    H211800   3.666   2.593   3.072 -0.0936  0.3619  0.4578
 3791TIP3   OH211801   2.182   5.765   2.066  0.1037  0.2133  0.1850
 3791TIP3    H111802   2.167   5.738   2.157 -0.4967  2.1963  0.7005
 3791TIP3    H211803   2.271   5.801   2.067  0.3624 -0.4155 -0.1741
 3792TIP3   OH211804   4.384   3.306   0.431  0.2230  0.4630 -0.3791
 3792TIP3    H111805   4.299   3.299   0.389  0.1962  0.0654 -0.2632
 3792TIP3    H211806   4.419   3.391   0.402 -1.7272  2.2846  2.3889
 3793TIP3   OH211807   2.772   5.719   4.167  0.3841 -0.0737  0.8705
 3793TIP3    H111808   2.728   5.650   4.118  2.9691 -0.6916 -0.6553
 3793TIP3    H211809   2.853   5.680   4.198  2.3362  2.4911 -0.8003
 3794TIP3   OH211810   2.399   3.905   4.035  0.1912 -0.5508 -0.6037
 3794TIP3    H111811   2.476   3.917   3.980 -1.2977  0.8130 -2.4199
 3794TIP3    H211812   2.329   3.953   3.991 -1.5300 -1.0954  1.4274
 3795TIP3   OH211813   1.442   3.717   0.459 -0.9561 -0.2242 -0.7103
 3795TIP3    H111814   1.484   3.632   0.443 -0.6668 -0.2937  0.3790
 3795TIP3    H211815   1.430   3.754   0.372  2.5084  0.3418 -1.0252
 3796TIP3   OH211816   1.886   5.182   2.898 -0.3176  0.5273  0.2077
 3796TIP3    H111817   1.966   5.156   2.944 -0.0315 -0.3634 -0.7727
 3796TIP3    H211818   1.883   5.277   2.908  0.1060  0.4270  1.4593
 3797TIP3   OH211819   3.223   4.959   4.566  0.1067 -0.2296  0.0187
 3797TIP3    H111820   3.173   4.878   4.558  1.1058 -0.9054  0.5120
 3797TIP3    H211821   3.179   5.007   4.637  0.0507 -0.7466  0.3412
 3798TIP3   OH211822   4.483   2.361   1.475 -0.0823  0.4914 -0.1071
 3798TIP3    H111823   4.412   2.300   1.493  1.1372 -1.5220 -1.8987
 3798TIP3    H211824   4.463   2.397   1.389  0.3505  1.0093 -0.0004
 3799TIP3   OH211825   2.336   3.381   1.770 -0.1992 -0.2780 -0.5513
 3799TIP3    H111826   2.361   3.437   1.697  0.6860 -0.3315 -0.2935
 3799TIP3    H211827   2.339   3.439   1.846  0.9971 -0.7220 -0.2399
 3800TIP3   OH211828   3.152   2.115   1.123  0.3468  0.2224 -0.3896
 3800TIP3    H111829   3.061   2.144   1.129  0.5673  0.6773  0.8617
 3800TIP3    H211830   3.161   2.050   1.192  0.5371 -1.0318 -1.5719
 3801TIP3   OH211831   1.005   0.046   0.785  0.5046  0.8652  0.1186
 3801TIP3    H111832   1.041  -0.019   0.725 -0.2810  2.0735 -1.7237
 3801TIP3    H211833   0.929   0.002   0.825  0.6938  0.2329 -0.2058
 3802TIP3   OH211834   0.227   2.945   5.916  0.7626  0.2740  0.2516
 3802TIP3    H111835   0.186   3.029   5.936  0.4201  0.4294 -1.0958
 3802TIP3    H211836   0.273   2.921   5.997 -1.7453  0.2221  1.7184
 3803TIP3   OH211837   0.473   2.721   0.838 -0.0750 -0.0475  0.4067
 3803TIP3    H111838   0.393   2.748   0.793 -0.0579 -2.0534 -0.9420
 3803TIP3    H211839   0.461   2.749   0.928 -0.9503  2.4095 -0.4278
 3804TIP3   OH211840   2.927   5.844   0.227  0.5569  0.0185 -0.3893
 3804TIP3    H111841   2.978   5.829   0.307 -1.6429  2.1387  1.4781
 3804TIP3    H211842   2.951   5.932   0.200  0.1850 -0.1452 -1.2507
 3805TIP3   OH211843   3.158   0.359   2.953 -0.4341 -0.2977  0.4822
 3805TIP3    H111844   3.222   0.331   2.888  0.2893 -0.2577  1.1662
 3805TIP3    H211845   3.098   0.285   2.960 -0.5651 -0.2707 -0.2789
 3806TIP3   OH211846   3.730   5.166   2.761 -0.3003  0.8869 -0.0711
 3806TIP3    H111847   3.811   5.116   2.750 -0.9768 -0.3996  0.7049
 3806TIP3    H211848   3.703   5.186   2.671 -0.7634 -1.3663 -0.4676
 3807TIP3   OH211849   2.258   5.273   1.529  0.2895  0.0409 -0.2566
 3807TIP3    H111850   2.227   5.183   1.542 -1.8908  0.4753 -2.0335
 3807TIP3    H211851   2.239   5.317   1.613 -1.4771 -0.4070 -0.3937
 3808TIP3   OH211852   4.428   4.770   2.875  0.2236  0.2451  0.1001
 3808TIP3    H111853   4.355   4.796   2.819  2.5828 -0.3855 -3.4751
 3808TIP3    H211854   4.467   4.852   2.905 -0.1692  0.6125 -0.3945
 3809TIP3   OH211855   2.354   4.781   5.241 -0.5082  0.0571 -0.0404
 3809TIP3    H111856   2.443   4.775   5.275 -0.3197 -0.7331 -0.6450
 3809TIP3    H211857   2.347   4.871   5.208  0.2645 -0.0404 -0.4959
 3810TIP3   OH211858   4.715   0.350   1.638 -0.6271 -0.2608  0.5465
 3810TIP3    H111859   4.652   0.400   1.690  0.2126  1.4513 -0.0650
 3810TIP3    H211860   4.795   0.402   1.639 -0.4019 -0.5090 -1.9299
 3811TIP3   OH211861   2.630   0.407   5.158 -0.2782 -0.0304  0.0491
 3811TIP3    H111862   2.686   0.347   5.208  3.4295  2.7059 -0.5995
 3811TIP3    H211863   2.607   0.476   5.219 -0.5719  0.3294 -0.4632
 3812TIP3   OH211864   2.094   3.974   2.472 -0.7809 -0.3249  0.4549
 3812TIP3    H111865   2.043   4.036   2.524 -2.2671 -1.1226 -0.0124
 3812TIP3    H211866   2.185   4.000   2.485 -1.4190  2.4087 -0.3369
 3813TIP3   OH211867   2.277   4.526   3.550 -0.2169  0.4567  0.2784
 3813TIP3    H111868   2.349   4.490   3.498 -0.1123 -1.8230  1.9451
 3813TIP3    H211869   2.255   4.457   3.613 -3.3538  1.4127  0.3324
 3814TIP3   OH211870   0.724   1.534   5.317 -0.3546 -0.4402  0.3247
 3814TIP3    H111871   0.789   1.486   5.368  1.0026 -0.9779 -1.8814
 3814TIP3    H211872   0.681   1.468   5.263 -0.5577  0.3857 -0.5349
 3815TIP3   OH211873   2.702   3.674   0.503 -0.0081  0.2761  0.0467
 3815TIP3    H111874   2.774   3.614   0.485  1.6082  2.0929  0.2964
 3815TIP3    H211875   2.691   3.669   0.598  0.4826  0.7898  0.1277
 3816TIP3   OH211876   3.604   5.344   1.792 -0.3207 -0.2211  0.5240
 3816TIP3    H111877   3.638   5.271   1.843  0.2339  0.5462  1.2598
 3816TIP3    H211878   3.546   5.391   1.853 -1.5947 -0.7011 -0.2879
 3817TIP3   OH211879   1.998   3.102   1.475  0.2558 -0.0969 -0.0311
 3817TIP3    H111880   1.984   3.007   1.466 -0.5652  0.1665 -1.4977
 3817TIP3    H211881   2.064   3.122   1.409 -0.0765  0.4761 -0.1847
 3818TIP3   OH211882   3.469   5.273   2.841 -0.7516 -0.2676 -0.1392
 3818TIP3    H111883   3.554   5.229   2.848 -0.7749 -0.3894 -0.6062
 3818TIP3    H211884   3.427   5.258   2.926 -1.2324 -2.1114 -0.6948
 3819TIP3   OH211885   1.957   1.303   0.622 -0.3234 -0.2047  0.5208
 3819TIP3    H111886   1.910   1.385   0.608 -0.7182 -0.3213  1.1453
 3819TIP3    H211887   1.943   1.253   0.541  1.2829  1.0022 -0.5078
 3820TIP3   OH211888   0.108   3.967   3.730  0.5149 -0.8526  0.3288
 3820TIP3    H111889   0.053   3.950   3.653  0.7498 -0.2136  0.0169
 3820TIP3    H211890   0.181   4.019   3.696  1.4708 -1.9384  0.6942
 3821TIP3   OH211891   3.201   3.417   3.273  0.2249  0.1050 -0.5696
 3821TIP3    H111892   3.266   3.448   3.337  0.6553 -0.2032 -0.8560
 3821TIP3    H211893   3.133   3.377   3.327  1.0038 -0.9322 -0.3317
 3822TIP3   OH211894   4.173   3.320   2.965  0.3363  0.0222 -0.6656
 3822TIP3    H111895   4.109   3.293   2.900 -1.5312 -1.1386  1.5856
 3822TIP3    H211896   4.186   3.242   3.020  0.1859  1.6133  1.6955
 3823TIP3   OH211897   3.047   4.587   3.203  0.2231  0.6478 -0.4585
 3823TIP3    H111898   2.978   4.576   3.269 -0.5135  2.0536 -0.9934
 3823TIP3    H211899   3.016   4.658   3.147  2.6319  2.0528 -0.0497
 3824TIP3   OH211900   3.817   0.164   4.124 -0.3462 -0.5007  0.0839
 3824TIP3    H111901   3.807   0.224   4.049  1.5503 -0.5681 -0.2427
 3824TIP3    H211902   3.736   0.113   4.124 -0.7069  0.0318 -1.4511
 3825TIP3   OH211903   0.912   2.191   0.207 -0.4587 -0.3324 -0.0370
 3825TIP3    H111904   0.867   2.266   0.247 -2.2887 -2.0150  1.1809
 3825TIP3    H211905   1.002   2.197   0.238  0.6425  3.9195 -3.6350
 3826TIP3   OH211906   3.459   3.346   3.646  0.0374  0.1994  0.0237
 3826TIP3    H111907   3.455   3.383   3.557  0.3845 -1.0628 -0.5275
 3826TIP3    H211908   3.528   3.280   3.641  2.7649  2.7452  2.2274
 3827TIP3   OH211909   2.087   5.142   2.363 -0.1165  0.2827 -0.1163
 3827TIP3    H111910   2.070   5.226   2.321 -1.6044  0.7583  1.3817
 3827TIP3    H211911   2.005   5.093   2.352  0.5926 -0.8047 -0.5967
 3828TIP3   OH211912   4.037   3.173   5.226 -0.1875  0.1624 -0.5150
 3828TIP3    H111913   3.968   3.174   5.160  0.2758 -0.9751 -1.0361
 3828TIP3    H211914   4.110   3.219   5.185 -0.2380  0.3217 -0.4242
 3829TIP3   OH211915   2.557   5.005   3.632 -0.3103  0.1597 -0.3606
 3829TIP3    H111916   2.601   4.970   3.709  1.2197 -0.9634 -1.7016
 3829TIP3    H211917   2.560   4.933   3.568  1.9628  2.3139 -2.8077
 3830TIP3   OH211918   1.618   5.851   3.204 -0.3802 -0.2178 -0.1243
 3830TIP3    H111919   1.654   5.850   3.115  0.1929  1.6326  0.0752
 3830TIP3    H211920   1.581   5.938   3.214 -1.7057 -0.8831  0.9787
 3831TIP3   OH211921   0.990   2.102   3.974 -0.1760 -0.3094  0.2163
 3831TIP3    H111922   0.995   2.070   4.064  1.3585 -3.4686 -0.9186
 3831TIP3    H211923   1.065   2.063   3.930 -1.6420  0.0691 -2.7964
 3832TIP3   OH211924   4.109   0.090   1.223 -0.2434  0.4478 -0.0657
 3832TIP3    H111925   4.193   0.061   1.257 -1.5677 -2.3998  1.0411
 3832TIP3    H211926   4.117   0.081   1.128  0.3473 -0.9521  0.0989
 3833TIP3   OH211927   3.752   5.562   1.690  0.2691 -0.1426  0.3140
 3833TIP3    H111928   3.691   5.523   1.753 -1.1148  0.2619 -0.7505
 3833TIP3    H211929   3.733   5.656   1.693 -0.8489 -0.2851 -1.7923
 3834TIP3   OH211930   5.966   3.018   1.502 -0.4881 -0.1494  0.1888
 3834TIP3    H111931   5.962   3.003   1.407 -1.8014  0.3100  0.1727
 3834TIP3    H211932   5.965   3.113   1.512  1.5855 -0.1331  0.5963
 3835TIP3   OH211933   1.814   4.092   0.832  0.2020  0.2933 -0.6056
 3835TIP3    H111934   1.733   4.066   0.789 -1.2955 -0.1606  2.3906
 3835TIP3    H211935   1.867   4.012   0.833  0.3785  0.3744 -1.7807
 3836TIP3   OH211936   3.142   5.181   2.571 -0.2885 -0.5201  0.0824
 3836TIP3    H111937   3.118   5.269   2.602  1.1808  0.5093 -1.5614
 3836TIP3    H211938   3.229   5.193   2.532 -0.8429 -2.3345 -1.8121
 3837TIP3   OH211939   3.698   5.199   3.999 -0.2512  0.0866 -0.5015
 3837TIP3    H111940   3.728   5.224   3.912  0.6224  2.6454  0.4887
 3837TIP3    H211941   3.651   5.275   4.032  0.6792 -0.2798  1.8124
 3838TIP3   OH211942   4.302   3.715   3.829 -0.1609 -0.0160 -0.2259
 3838TIP3    H111943   4.289   3.712   3.734 -1.4257  2.3191 -0.1692
 3838TIP3    H211944   4.284   3.806   3.853  2.1614 -0.0775  1.9922
 3839TIP3   OH211945   3.092   5.552   2.197  0.0932  0.5636 -0.2277
 3839TIP3    H111946   3.025   5.603   2.151  0.3736  2.0008  0.9468
 3839TIP3    H211947   3.053   5.531   2.282  0.8805  0.8369  0.2024
 3840TIP3   OH211948   1.084   4.844   3.602  0.4580 -0.2119 -0.2457
 3840TIP3    H111949   1.037   4.789   3.540  1.4575 -1.1101 -0.2292
 3840TIP3    H211950   1.027   4.919   3.616 -0.3540 -0.6299 -1.2541
 3841TIP3   OH211951   5.167   4.585   2.171 -0.0130 -0.0089  0.0480
 3841TIP3    H111952   5.213   4.623   2.246  1.2014  0.0425 -0.7034
 3841TIP3    H211953   5.191   4.493   2.173 -1.5324 -0.4075  0.8314
 3842TIP3   OH211954   3.622   3.070   2.915 -0.2291  0.5729  0.0958
 3842TIP3    H111955   3.632   2.997   2.853  0.8611  1.1821 -0.4498
 3842TIP3    H211956   3.531   3.098   2.903 -0.7286 -0.8441  0.4787
 3843TIP3   OH211957   1.067   2.381   1.556 -0.0486  0.0397 -0.0001
 3843TIP3    H111958   1.130   2.314   1.530 -0.7170 -0.3135 -0.7387
 3843TIP3    H211959   0.981   2.342   1.537 -0.4414  1.1439 -0.5649
 3844TIP3   OH211960   4.238   4.995   2.369 -0.1215 -0.5227  0.3993
 3844TIP3    H111961   4.306   4.935   2.340 -0.4904 -1.4542  1.4145
 3844TIP3    H211962   4.286   5.073   2.399  0.4223 -0.7154  0.0278
 3845TIP3   OH211963   3.427   4.129   2.449 -0.0428  0.0841 -0.0929
 3845TIP3    H111964   3.435   4.113   2.543 -2.9555  1.8476  0.5170
 3845TIP3    H211965   3.458   4.048   2.408  0.8359 -0.8632  2.3789
 3846TIP3   OH211966   3.495   1.674   2.110  0.5935 -0.8063 -0.0084
 3846TIP3    H111967   3.518   1.598   2.056  2.0076 -0.6218  0.3126
 3846TIP3    H211968   3.504   1.749   2.052  2.5611 -0.5606  0.5542
 3847TIP3   OH211969   3.628   4.320   2.032 -0.5605  0.7019  0.6541
 3847TIP3    H111970   3.562   4.326   2.102 -1.4687 -3.0900  0.2086
 3847TIP3    H211971   3.659   4.230   2.036  2.2562  1.5201 -1.3333
 3848TIP3   OH211972   0.158   3.347   2.898  0.2395 -0.3213 -0.2426
 3848TIP3    H111973   0.213   3.331   2.974  0.6206 -1.0055 -0.6565
 3848TIP3    H211974   0.126   3.437   2.909 -1.8666 -1.2966  2.0940
 3849TIP3   OH211975   3.222   4.421   1.856  0.0841  0.1056 -0.6167
 3849TIP3    H111976   3.317   4.411   1.862  0.1025 -0.4599 -1.6217
 3849TIP3    H211977   3.189   4.332   1.860 -0.4476  0.3400  0.2726
 3850TIP3   OH211978   3.142   5.078   6.082  0.1180  0.5354 -0.4564
 3850TIP3    H111979   3.128   5.067   5.988 -1.5183  0.1694 -0.1800
 3850TIP3    H211980   3.137   4.989   6.118  3.7265  0.2763 -0.3737
 3851TIP3   OH211981   1.102   3.443   0.101 -0.4936  0.3776  0.0922
 3851TIP3    H111982   1.008   3.451   0.115 -0.7134 -0.8847 -0.5999
 3851TIP3    H211983   1.125   3.358   0.140 -0.0147 -0.2780 -1.5654
 3852TIP3   OH211984   3.036   3.149   3.387  0.0428  0.2835  0.1790
 3852TIP3    H111985   3.022   3.105   3.303  2.3462 -1.7188  0.7790
 3852TIP3    H211986   2.977   3.104   3.447  0.0690  0.1568  0.1116
 3853TIP3   OH211987   5.438   0.752   2.346  0.4705  0.0770 -0.1777
 3853TIP3    H111988   5.507   0.743   2.412  2.0481  2.2145 -1.4445
 3853TIP3    H211989   5.370   0.804   2.388 -0.1648 -1.5556  0.8895
 3854TIP3   OH211990   2.508   3.021   6.090  0.2692  0.7031 -0.2483
 3854TIP3    H111991   2.554   2.981   6.016 -0.4795 -0.6191 -0.0011
 3854TIP3    H211992   2.517   2.958   6.161  0.1605  1.5425  0.5166
 3855TIP3   OH211993   3.917   5.675   3.716  0.3925  0.5232  0.0618
 3855TIP3    H111994   3.898   5.650   3.625  0.5441 -0.9556  0.4150
 3855TIP3    H211995   3.831   5.677   3.758  0.2662  1.7477 -0.2291
 3856TIP3   OH211996   3.562   5.311   1.035 -0.0730  0.1531 -0.0612
 3856TIP3    H111997   3.476   5.343   1.061 -0.5141 -0.4700 -0.7182
 3856TIP3    H211998   3.595   5.265   1.112 -0.8180 -0.5734 -0.1650
 3857TIP3   OH211999   2.427   4.192   3.609  0.0666  0.5143 -0.2329
 3857TIP3    H112000   2.363   4.241   3.660 -0.5629  0.5686 -1.0600
 3857TIP3    H212001   2.437   4.242   3.528  0.7280  0.2022 -0.3499
 3858TIP3   OH212002   6.073   1.170   3.384 -0.4365  0.2436  0.1610
 3858TIP3    H112003   6.129   1.238   3.347 -0.2239  0.7473  1.3659
 3858TIP3    H212004   6.123   1.090   3.374  0.3410  0.6317  0.8680
 3859TIP3   OH212005   1.826   0.321   2.999  0.1190  0.0291 -0.1629
 3859TIP3    H112006   1.847   0.256   2.932  1.0557 -0.8830  0.9871
 3859TIP3    H212007   1.892   0.307   3.067 -0.4682  1.3203  0.6878
 3860TIP3   OH212008   2.965   4.986   2.638 -0.1544  0.5678 -0.0355
 3860TIP3    H112009   3.016   5.060   2.607 -1.3639  1.0712 -0.8608
 3860TIP3    H212010   2.951   4.932   2.560 -1.3222  0.7116  0.0601
 3861TIP3   OH212011   3.315   3.206   2.576 -0.2570  0.4515  0.1702
 3861TIP3    H112012   3.264   3.194   2.656 -1.4277  1.4627 -0.4034
 3861TIP3    H212013   3.302   3.125   2.526 -1.5850  0.8215 -0.1119
 3862TIP3   OH212014   2.178   1.420   2.813  0.5086  0.0822 -0.0934
 3862TIP3    H112015   2.089   1.450   2.828  1.0581  2.3171 -1.1448
 3862TIP3    H212016   2.205   1.382   2.897 -1.4242 -0.6896  0.2067
 3863TIP3   OH212017   1.206   5.964   3.795 -0.5697  0.1492  0.4586
 3863TIP3    H112018   1.271   5.917   3.743  0.0986  0.7425  0.7577
 3863TIP3    H212019   1.122   5.936   3.759 -0.1023  0.9691 -1.2943
 3864TIP3   OH212020   2.213   5.279   4.796 -0.3452 -0.0830  0.0163
 3864TIP3    H112021   2.164   5.247   4.720  0.0616  1.3408 -0.8812
 3864TIP3    H212022   2.299   5.237   4.789 -0.5116 -0.4280  0.0335
 3865TIP3   OH212023   1.961   5.499   1.462  1.1381  0.2575 -0.5566
 3865TIP3    H112024   2.002   5.427   1.509  1.7718  1.9818  1.6376
 3865TIP3    H212025   1.895   5.533   1.523  0.7031  1.3791 -1.6286
 3866TIP3   OH212026   1.816   5.664   2.570  0.3092  0.5013 -0.6033
 3866TIP3    H112027   1.727   5.692   2.591  0.9481 -0.0991  3.2378
 3866TIP3    H212028   1.811   5.569   2.564  0.3860  0.5790 -2.0971
 3867TIP3   OH212029   2.868   3.829   3.709  0.0158 -0.1389 -0.2503
 3867TIP3    H112030   2.858   3.919   3.678  2.4822 -0.0465 -0.8944
 3867TIP3    H212031   2.840   3.831   3.800 -1.8713  0.8354 -0.8340
 3868TIP3   OH212032   2.049   3.190   2.625 -0.2438  0.0732 -0.1703
 3868TIP3    H112033   1.995   3.206   2.702 -0.4146  0.1315 -0.3029
 3868TIP3    H212034   2.057   3.095   2.620  2.6752  0.1352  1.9566
 3869TIP3   OH212035   3.190   0.498   5.055  0.1998  0.2459 -0.0829
 3869TIP3    H112036   3.112   0.505   5.000 -0.4458  0.6049  0.8767
 3869TIP3    H212037   3.156   0.473   5.141  1.1271  0.6277  0.3915
 3870TIP3   OH212038   1.855   5.148   1.653 -0.4797  0.6654  0.1794
 3870TIP3    H112039   1.863   5.204   1.731  0.8693 -0.3181  0.7554
 3870TIP3    H212040   1.918   5.078   1.668 -0.4985  0.2623 -1.6314
 3871TIP3   OH212041   1.363   5.785   3.638  0.1756 -0.6001 -0.3558
 3871TIP3    H112042   1.419   5.711   3.659 -1.0029 -0.7619  2.4464
 3871TIP3    H212043   1.286   5.747   3.596  0.3057 -0.7874 -0.4222
 3872TIP3   OH212044   5.075   3.501   1.972 -0.0554  0.0510 -0.4255
 3872TIP3    H112045   5.113   3.529   2.056  1.5507 -0.9706 -0.7904
 3872TIP3    H212046   4.980   3.503   1.987  0.2191 -0.5992  1.5691
 3873TIP3   OH212047   2.243   3.050   0.906  0.1112 -0.6530 -0.2006
 3873TIP3    H112048   2.247   2.968   0.955  1.6357 -1.4022 -1.5297
 3873TIP3    H212049   2.247   3.023   0.814 -1.1958  0.8122 -0.6877
 3874TIP3   OH212050   2.748   3.571   1.885  0.1753 -0.7782  0.5405
 3874TIP3    H112051   2.654   3.556   1.893  0.3830 -2.0060  0.8337
 3874TIP3    H212052   2.765   3.646   1.941 -0.9069  0.6146 -0.9319
 3875TIP3   OH212053   1.652   5.163   0.156  0.4807 -0.2334  0.1194
 3875TIP3    H112054   1.626   5.209   0.076  0.3550 -0.2460  0.1516
 3875TIP3    H212055   1.636   5.070   0.136 -0.8571 -0.1330  0.6244
 3876TIP3   OH212056   3.113   3.906   1.871 -0.3908  0.6097  0.1349
 3876TIP3    H112057   3.136   3.886   1.961  1.8697  0.6812 -0.3963
 3876TIP3    H212058   3.071   3.826   1.839  0.9761 -0.2908  0.5453
 3877TIP3   OH212059   2.171   2.713   1.809  0.4227  0.2770  0.1909
 3877TIP3    H112060   2.261   2.682   1.804  1.2899  2.7489 -0.5809
 3877TIP3    H212061   2.173   2.799   1.766 -2.5656 -0.1527 -0.9115
 3878TIP3   OH212062   3.753   5.784   0.474  0.4178  0.0921 -0.4621
 3878TIP3    H112063   3.722   5.874   0.485  2.1643  0.4783  1.5780
 3878TIP3    H212064   3.718   5.757   0.389 -0.7437  2.4289 -0.7757
 3879TIP3   OH212065   5.406   0.598   1.317  0.1500 -0.2572  0.3198
 3879TIP3    H112066   5.448   0.613   1.402 -1.3789  0.8380  0.9155
 3879TIP3    H212067   5.313   0.590   1.338 -0.1609 -0.7249 -1.1816
 3880TIP3   OH212068   2.124   4.415   5.571  0.2285  0.1908  0.1053
 3880TIP3    H112069   2.056   4.349   5.589  0.2744  0.7024  2.3011
 3880TIP3    H212070   2.090   4.464   5.496 -0.2057 -1.7714 -1.0223
 3881TIP3   OH212071   4.590   5.730   3.926 -0.1656 -0.3455  0.4095
 3881TIP3    H112072   4.517   5.781   3.961  0.2274 -0.4865  1.4634
 3881TIP3    H212073   4.581   5.644   3.967  0.2283 -0.5551  0.0615
 3882TIP3   OH212074   4.876   5.443   1.399 -0.0584 -0.3963 -0.6202
 3882TIP3    H112075   4.969   5.437   1.420  0.2102 -0.7013 -1.8234
 3882TIP3    H212076   4.863   5.378   1.330 -1.3990 -1.1129  0.2936
 3883TIP3   OH212077   1.642   5.643   3.017 -0.0048 -0.0366 -0.0944
 3883TIP3    H112078   1.622   5.654   3.110  0.4787  0.0078  0.0017
 3883TIP3    H212079   1.620   5.727   2.978  0.3278  0.1248  0.0688
 3884TIP3   OH212080   5.940   5.643   4.354 -0.8285 -0.4354 -0.0895
 3884TIP3    H112081   5.992   5.674   4.280 -0.2658 -0.8610  0.1221
 3884TIP3    H212082   5.965   5.550   4.363  0.8269  0.1754  2.0682
 3885TIP3   OH212083   0.423   5.201   3.116 -0.6554 -0.6295 -0.1625
 3885TIP3    H112084   0.481   5.273   3.091  0.7376 -0.8888  2.1868
 3885TIP3    H212085   0.335   5.239   3.110  0.0506  1.2764  1.0257
 3886TIP3   OH212086   3.062   5.734   3.673 -0.4409 -0.5260 -0.5230
 3886TIP3    H112087   3.088   5.724   3.764  1.5233  2.1094 -0.7309
 3886TIP3    H212088   2.968   5.752   3.677 -0.4806 -1.0399  0.9330
 3887TIP3   OH212089   0.902   5.346   4.178 -0.0658 -0.2029 -0.0813
 3887TIP3    H112090   0.842   5.305   4.240 -0.5182 -0.0191 -0.3971
 3887TIP3    H212091   0.970   5.384   4.232  1.9490 -3.8695  0.1146
 3888TIP3   OH212092   3.189   4.512   4.101  0.0363  0.2036  0.2121
 3888TIP3    H112093   3.284   4.509   4.094  0.1775 -2.8406  2.4026
 3888TIP3    H212094   3.171   4.591   4.151  1.7448 -1.1100  3.0420
 3889TIP3   OH212095   3.110   3.721   0.562 -0.0766 -0.3480 -0.4849
 3889TIP3    H112096   3.119   3.796   0.621  1.6864  0.6795 -1.9881
 3889TIP3    H212097   3.017   3.718   0.541 -0.2906  0.9396  0.2154
 3890TIP3   OH212098   0.254   0.255   2.055 -0.7368 -0.1165 -0.3027
 3890TIP3    H112099   0.205   0.191   2.004 -0.6125  0.7316 -1.5281
 3890TIP3    H212100   0.339   0.215   2.070 -0.8485 -0.4603 -0.5941
 3891TIP3   OH212101   4.753   5.831   2.230  0.3187 -0.4592 -0.2475
 3891TIP3    H112102   4.700   5.859   2.155  0.8245 -0.7792 -0.7282
 3891TIP3    H212103   4.842   5.857   2.208  0.3114  0.3790  0.7192
 3892TIP3   OH212104   5.784   0.151   5.846  0.4562 -0.0386 -0.1888
 3892TIP3    H112105   5.773   0.060   5.816  0.7160  0.2533 -1.1811
 3892TIP3    H212106   5.865   0.180   5.805  0.8214  0.3710  0.8168
 3893TIP3   OH212107   1.121   5.692   2.133  0.2989 -0.5259  0.4504
 3893TIP3    H112108   1.135   5.660   2.222  1.3426 -1.3055  0.0172
 3893TIP3    H212109   1.209   5.705   2.098 -0.0611 -2.0585 -1.1122
 3894TIP3   OH212110   2.428   4.496   2.439 -0.0561 -0.1328  0.9842
 3894TIP3    H112111   2.342   4.475   2.476 -1.4657  2.6815 -0.4968
 3894TIP3    H212112   2.420   4.587   2.410  2.2977 -0.9133 -2.3993
 3895TIP3   OH212113   4.657   5.726   3.646 -0.0618 -0.0343  0.3293
 3895TIP3    H112114   4.635   5.790   3.579  1.1178  2.1045  1.9087
 3895TIP3    H212115   4.615   5.758   3.725  1.5666 -0.5231  1.4244
 3896TIP3   OH212116   2.532   2.864   1.859  0.0268 -0.1168  0.1934
 3896TIP3    H112117   2.511   2.779   1.822  0.1131  0.2502 -0.7135
 3896TIP3    H212118   2.615   2.888   1.819 -0.8407  1.1682 -0.8853
 3897TIP3   OH212119   6.023   2.456   3.940  0.2975 -0.3984  0.2655
 3897TIP3    H112120   5.942   2.508   3.933  1.2100  1.0782  0.4797
 3897TIP3    H212121   6.005   2.378   3.888  0.0232  1.5578 -2.7234
 3898TIP3   OH212122   4.260   3.987   1.774 -0.4300 -0.6418  0.2150
 3898TIP3    H112123   4.229   4.050   1.710  3.0952 -1.0028 -1.9895
 3898TIP3    H212124   4.250   3.902   1.731  0.1709 -1.0520  0.8695
 3899TIP3   OH212125   4.770   0.401   1.314 -0.0434 -0.5394  0.0023
 3899TIP3    H112126   4.746   0.363   1.398  0.5458  0.2166  0.5175
 3899TIP3    H212127   4.854   0.444   1.329  0.5056 -1.1513 -1.1993
 3900TIP3   OH212128   5.469   3.462   1.034 -0.4902  0.7981 -0.0077
 3900TIP3    H112129   5.453   3.555   1.053 -1.3903  0.3052  1.7725
 3900TIP3    H212130   5.548   3.441   1.083 -1.3532  0.1677  1.1415
 3901TIP3   OH212131   5.065   3.876   2.293  0.2201 -0.2915  0.1537
 3901TIP3    H112132   5.007   3.927   2.237  0.5469  0.2240  0.2727
 3901TIP3    H212133   5.128   3.940   2.326 -0.1277 -0.5340  1.3229
 3902TIP3   OH212134   2.675   4.162   3.489  0.1431  0.1312  0.0290
 3902TIP3    H112135   2.604   4.131   3.546  0.7934 -2.4056 -0.4527
 3902TIP3    H212136   2.740   4.092   3.492  1.4018  1.1839 -1.6989
 3903TIP3   OH212137   3.340   5.999   3.185  0.1880  0.0896  0.4758
 3903TIP3    H112138   3.380   5.952   3.112 -1.6916  0.0426 -0.5517
 3903TIP3    H212139   3.313   5.931   3.246  1.9844  0.1424  1.3689
 3904TIP3   OH212140   3.186   4.708   5.296 -0.8995 -0.1406 -0.5783
 3904TIP3    H112141   3.281   4.714   5.281 -0.6453 -3.0942 -0.4482
 3904TIP3    H212142   3.169   4.771   5.366  1.0867  0.0503 -0.2358
 3905TIP3   OH212143   5.816   4.643   5.612  0.2502 -0.7021  0.2123
 3905TIP3    H112144   5.812   4.701   5.536 -1.2800 -1.6253 -0.4426
 3905TIP3    H212145   5.826   4.555   5.575 -0.5827 -1.1686  1.0630
 3906TIP3   OH212146   4.908   5.101   5.410  0.2266  0.0070  0.0004
 3906TIP3    H112147   4.995   5.136   5.393  0.7193 -0.1556  2.0712
 3906TIP3    H212148   4.921   5.007   5.422 -0.5868 -0.3847 -2.0222
 3907TIP3   OH212149   5.080   3.732   4.572 -0.6702 -0.2757  0.0961
 3907TIP3    H112150   5.039   3.750   4.487 -0.8097 -3.1725 -0.4877
 3907TIP3    H212151   5.044   3.648   4.599  1.9820 -1.0587  1.4036
 3908TIP3   OH212152   4.364   0.439   2.618  0.2990 -0.2325 -0.2049
 3908TIP3    H112153   4.391   0.525   2.648  0.8030 -0.5680  0.3209
 3908TIP3    H212154   4.296   0.412   2.681 -0.1352 -0.0560 -0.5960
 3909TIP3   OH212155   5.887   5.617   1.204 -0.2669 -0.3655 -0.5326
 3909TIP3    H112156   5.847   5.539   1.165  3.0451 -2.4966  0.0764
 3909TIP3    H212157   5.829   5.640   1.277 -2.4164 -0.9496 -2.0152
 3910TIP3   OH212158   4.568   1.689   4.853  0.3217  0.0366 -0.3537
 3910TIP3    H112159   4.595   1.749   4.784  0.2148 -0.7578 -1.1110
 3910TIP3    H212160   4.640   1.690   4.916  0.8408  0.0783 -0.9381
 3911TIP3   OH212161   4.892   6.041   1.451  0.0211  0.8782  0.3788
 3911TIP3    H112162   4.835   6.089   1.512  0.2486 -0.1016  1.3997
 3911TIP3    H212163   4.841   6.035   1.370  0.1439  3.1170  0.1232
 3912TIP3   OH212164   2.507   4.085   1.211  0.0841  0.1916  0.1691
 3912TIP3    H112165   2.525   4.093   1.305 -0.4625  1.7622  0.1596
 3912TIP3    H212166   2.493   3.991   1.197  0.0720 -0.0465  1.6751
 3913TIP3   OH212167   5.738   0.211   3.335  0.0484  0.1593  0.9338
 3913TIP3    H112168   5.703   0.124   3.314 -0.2413 -0.0389  2.1975
 3913TIP3    H212169   5.786   0.198   3.417  0.4986  1.0740  0.8144
 3914TIP3   OH212170   5.665   4.758   2.874  0.1091  0.1458  0.0981
 3914TIP3    H112171   5.641   4.677   2.920  1.6852 -0.9448 -0.9337
 3914TIP3    H212172   5.717   4.728   2.799 -0.0641  2.0670 -0.8261
 3915TIP3   OH212173   5.871   5.644   0.115 -0.2481  0.0617  0.6396
 3915TIP3    H112174   5.920   5.669   0.194 -1.2605  1.0459  0.9611
 3915TIP3    H212175   5.931   5.663   0.043 -0.9136  3.2763  0.8738
 3916TIP3   OH212176   4.557   4.089   2.667 -0.4202  0.0764 -0.0983
 3916TIP3    H112177   4.514   4.062   2.748  2.5806 -1.4267  1.0800
 3916TIP3    H212178   4.587   4.179   2.685 -1.7230  0.5876 -0.4039
 3917TIP3   OH212179   3.454   3.640   1.557 -0.4348 -0.0255 -0.1796
 3917TIP3    H112180   3.504   3.603   1.630  0.5278  0.2633 -0.6845
 3917TIP3    H212181   3.421   3.564   1.509 -0.9309 -0.2147  0.4626
 3918TIP3   OH212182   2.920   2.899   2.204  0.1882 -0.0415  0.2118
 3918TIP3    H112183   2.927   2.881   2.298  0.2790 -1.1469 -0.0093
 3918TIP3    H212184   3.011   2.901   2.174  0.1552  0.2482  0.1259
 3919TIP3   OH212185   1.337   5.001   3.583 -0.0296 -0.1151 -0.4373
 3919TIP3    H112186   1.285   5.080   3.570  0.7808  0.6232  0.6138
 3919TIP3    H212187   1.278   4.929   3.565 -1.3258  0.7076  0.4496
 3920TIP3   OH212188   0.100   4.898   2.740  0.4052 -0.1534 -0.1475
 3920TIP3    H112189   0.020   4.864   2.780 -1.1837  2.8906 -0.6318
 3920TIP3    H212190   0.169   4.880   2.805 -1.3455  0.7344  2.0100
 3921TIP3   OH212191   4.289   4.940   3.635 -0.2053 -0.0247  0.0207
 3921TIP3    H112192   4.340   4.890   3.700  1.2391  1.8593  0.3846
 3921TIP3    H212193   4.283   4.882   3.560  2.6512 -0.2898 -0.0781
 3922TIP3   OH212194   3.864   0.527   5.215 -0.0317  0.0277  0.1004
 3922TIP3    H112195   3.904   0.591   5.274 -1.0880  0.0600  0.7973
 3922TIP3    H212196   3.798   0.577   5.167 -0.0953 -0.2993 -0.1490
 3923TIP3   OH212197   2.762   1.021   2.349  0.1413  0.0104 -0.5741
 3923TIP3    H112198   2.704   1.094   2.330  0.2559 -0.5902 -3.4335
 3923TIP3    H212199   2.817   1.012   2.271 -1.0615 -4.2147 -1.0824
 3924TIP3   OH212200   3.403   0.281   3.996  0.1683  0.2509  0.1934
 3924TIP3    H112201   3.404   0.302   4.089 -0.7133  0.1973  0.2137
 3924TIP3    H212202   3.414   0.186   3.993 -0.3269  0.1899  0.2651
 3925TIP3   OH212203   0.472   1.723   1.059  0.0366  0.5340 -0.3027
 3925TIP3    H112204   0.507   1.796   1.008 -1.1393  0.5292 -1.1342
 3925TIP3    H212205   0.446   1.659   0.994  0.5029 -0.3885  0.4045
 3926TIP3   OH212206   4.098   2.088   4.343 -0.0939  0.6040  0.3360
 3926TIP3    H112207   4.121   1.995   4.350 -1.5255  0.2165 -0.1494
 3926TIP3    H212208   4.054   2.097   4.259  0.0457  1.7321  0.3687
 3927TIP3   OH212209   0.369   5.955   1.956  0.1913 -0.2452 -0.2975
 3927TIP3    H112210   0.363   5.925   2.047  2.3921  1.2867  0.3893
 3927TIP3    H212211   0.288   6.004   1.941 -0.4857 -1.0835  0.6232
 3928TIP3   OH212212   5.478   4.668   3.903 -0.0052  0.5103  0.1312
 3928TIP3    H112213   5.540   4.735   3.875  0.7094  0.3547  1.3374
 3928TIP3    H212214   5.423   4.711   3.968  1.2358 -0.4054  1.8094
 3929TIP3   OH212215   4.177   5.740   1.538  1.3802  0.5120 -0.2399
 3929TIP3    H112216   4.265   5.756   1.504  2.3555  2.0995  2.8588
 3929TIP3    H212217   4.185   5.661   1.591 -0.0023 -1.6007 -3.0461
 3930TIP3   OH212218   0.373   5.088   3.693  0.0242 -0.0897  0.2298
 3930TIP3    H112219   0.327   5.081   3.776  0.6650 -3.6447  0.3560
 3930TIP3    H212220   0.465   5.073   3.715  0.0144 -2.5919 -1.2778
 3931TIP3   OH212221   3.686   4.426   4.291  0.2744  0.2908 -0.5388
 3931TIP3    H112222   3.713   4.362   4.225  0.8423  0.9047 -0.9064
 3931TIP3    H212223   3.693   4.379   4.374 -2.0320 -1.0241 -1.0324
 3932TIP3   OH212224   0.783   5.609   6.034  0.1145  0.4330 -0.3654
 3932TIP3    H112225   0.826   5.585   5.952 -0.4036 -1.3811 -0.1341
 3932TIP3    H212226   0.736   5.690   6.013  0.1342  0.0917 -1.8068
 3933TIP3   OH212227   5.638   4.280   4.946  0.5275 -0.3373  0.3004
 3933TIP3    H112228   5.557   4.247   4.907 -2.2051  0.5278  4.7971
 3933TIP3    H212229   5.654   4.363   4.901 -3.1055  1.1744  1.5474
 3934TIP3   OH212230   3.805   0.939   1.076  0.0842  0.1015 -0.5530
 3934TIP3    H112231   3.828   0.859   1.029  0.1023 -0.1253 -0.1573
 3934TIP3    H212232   3.711   0.951   1.059 -0.1660 -0.6060  0.2884
 3935TIP3   OH212233   5.058   4.820   1.157 -0.5343 -0.6575  0.0982
 3935TIP3    H112234   5.141   4.817   1.111 -0.8210  0.9594 -0.5635
 3935TIP3    H212235   4.992   4.818   1.088 -1.0171 -0.7381  0.5572
 3936TIP3   OH212236   1.544   0.825   3.824 -0.0607  0.1364  0.0026
 3936TIP3    H112237   1.630   0.861   3.842 -0.2372 -0.2297  1.6521
 3936TIP3    H212238   1.560   0.739   3.785  0.3289  0.9728 -1.7226
 3937TIP3   OH212239   4.558   3.722   3.576 -0.0654 -0.5298 -0.7219
 3937TIP3    H112240   4.500   3.789   3.538 -2.1744 -1.1708  1.2862
 3937TIP3    H212241   4.539   3.643   3.526 -0.5989 -0.6444 -0.3299
 3938TIP3   OH212242   4.753   4.725   4.180  0.0901  0.0605 -0.3706
 3938TIP3    H112243   4.746   4.684   4.094 -0.0792 -2.4570  0.7895
 3938TIP3    H212244   4.672   4.775   4.190 -0.1528 -0.1120 -1.4256
 3939TIP3   OH212245   0.023   4.731   5.399  0.5848 -0.5154 -0.7087
 3939TIP3    H112246  -0.009   4.705   5.312 -1.7005 -0.5190  0.0956
 3939TIP3    H212247   0.073   4.811   5.382 -0.8493  0.1581 -1.8984
 3940TIP3   OH212248   0.610   5.622   2.000  0.2824  0.3562 -0.6098
 3940TIP3    H112249   0.659   5.705   1.995  0.0840  0.4496 -1.0473
 3940TIP3    H212250   0.642   5.580   2.080  0.6168  0.7099 -0.5555
 3941TIP3   OH212251   5.620   4.627   2.364  0.1654  0.3954 -0.5219
 3941TIP3    H112252   5.646   4.549   2.316 -0.7666 -0.2005 -0.0708
 3941TIP3    H212253   5.699   4.653   2.412  0.5470 -0.1114 -0.8721
 3942TIP3   OH212254   5.209   5.362   3.522  0.3671  0.3083 -0.0231
 3942TIP3    H112255   5.165   5.278   3.515  1.2515 -0.0785 -1.1226
 3942TIP3    H212256   5.248   5.363   3.609 -2.2571  0.8995  1.2183
 3943TIP3   OH212257   4.477   2.636   1.594  0.8386  0.0913 -0.6457
 3943TIP3    H112258   4.386   2.661   1.607  0.6770 -0.2759 -1.0850
 3943TIP3    H212259   4.474   2.544   1.570  1.5158 -0.6810  2.0827
 3944TIP3   OH212260   5.373   5.126   3.476  0.2120 -0.3472 -0.6327
 3944TIP3    H112261   5.289   5.111   3.519 -0.2725 -1.1033 -1.8045
 3944TIP3    H212262   5.408   5.205   3.517 -1.0174 -0.0957 -0.0543
 3945TIP3   OH212263   4.715   0.102   2.664 -0.1766 -0.0818 -0.5631
 3945TIP3    H112264   4.715   0.191   2.698  0.5951 -1.2498  2.6565
 3945TIP3    H212265   4.775   0.106   2.588 -2.2468  2.6535 -2.1540
 3946TIP3   OH212266   5.420   0.934   3.535 -0.1451  0.3807 -0.3662
 3946TIP3    H112267   5.480   0.860   3.526 -0.4508  0.3017 -1.8530
 3946TIP3    H212268   5.464   0.992   3.598  0.3756 -0.7608  0.3511
 3947TIP3   OH212269   4.230   4.417   4.664  0.4432 -1.0233 -0.0696
 3947TIP3    H112270   4.202   4.328   4.684  0.4137 -1.1412 -0.6362
 3947TIP3    H212271   4.149   4.465   4.647  0.4719 -0.9338  0.0368
 3948TIP3   OH212272   5.050   4.158   1.957  0.0799  0.1881 -0.1041
 3948TIP3    H112273   5.014   4.141   2.044  0.7655  0.9639  0.3477
 3948TIP3    H212274   4.980   4.135   1.896 -0.0571 -1.2969  0.6054
 3949TIP3   OH212275   5.279   2.042   2.818  0.5013 -0.0308 -0.2212
 3949TIP3    H112276   5.319   1.981   2.880  1.2848  1.3307  0.6346
 3949TIP3    H212277   5.194   2.064   2.856 -0.5213 -1.8275 -1.3474
 3950TIP3   OH212278   2.876   5.720   2.154  0.1045 -0.1170  0.4893
 3950TIP3    H112279   2.827   5.674   2.086  0.8315  0.7900 -0.6642
 3950TIP3    H212280   2.857   5.812   2.139  1.3093  0.1706  0.7182
 3951TIP3   OH212281   6.035   4.894   3.811  0.6097  0.3561  0.2556
 3951TIP3    H112282   6.038   4.819   3.751  0.0956  1.7666 -1.5831
 3951TIP3    H212283   6.072   4.860   3.893 -0.5458 -2.1846 -0.2155
 3952TIP3   OH212284   0.757   4.101   3.242 -0.2725 -1.2066 -0.1266
 3952TIP3    H112285   0.799   4.100   3.329 -3.8202  1.3727  1.7419
 3952TIP3    H212286   0.812   4.158   3.189  0.2537 -0.2629  1.3944
 3953TIP3   OH212287   5.388   6.063   1.907  0.0692  0.3289  0.2238
 3953TIP3    H112288   5.368   6.051   2.000  1.0430 -0.9048  0.2880
 3953TIP3    H212289   5.471   6.018   1.895 -1.9805 -3.0969 -2.0590
 3954TIP3   OH212290   5.639   4.803   3.721  0.2286 -0.6040  0.6548
 3954TIP3    H112291   5.708   4.778   3.660  0.4068 -0.6075  0.8561
 3954TIP3    H212292   5.570   4.841   3.666  1.4235  1.6773  0.6742
 3955TIP3   OH212293   4.274   5.792   2.108 -0.2697  0.6556 -0.2991
 3955TIP3    H112294   4.244   5.862   2.166 -1.0075 -0.4969  0.7305
 3955TIP3    H212295   4.363   5.818   2.083 -0.8570  2.3999 -0.6520
 3956TIP3   OH212296   4.113   4.169   2.724  0.0705  0.0023 -0.0189
 3956TIP3    H112297   4.109   4.201   2.634  0.8877 -2.2871 -0.9203
 3956TIP3    H212298   4.045   4.102   2.729  0.1393  0.0001  1.0210
 3957TIP3   OH212299   6.002   1.206   2.416 -0.9371 -0.0375 -0.2875
 3957TIP3    H112300   6.069   1.225   2.350 -0.8289 -0.7027 -0.3722
 3957TIP3    H212301   5.923   1.249   2.383 -0.5661  0.7112 -0.2112
 3958TIP3   OH212302   4.508   5.641   0.944 -0.4511  0.4156  0.2205
 3958TIP3    H112303   4.542   5.694   0.871 -0.0772  0.0943  0.1631
 3958TIP3    H212304   4.538   5.687   1.023 -1.3191  1.0639  0.1729
 3959TIP3   OH212305   2.474   6.060   0.613 -0.6886 -0.4225  0.3052
 3959TIP3    H112306   2.478   5.964   0.605 -0.7124 -0.4685  0.8808
 3959TIP3    H212307   2.456   6.090   0.524  1.3353 -0.8417 -0.2661
 3960TIP3   OH212308   2.852   3.724   0.793 -0.0317  0.6106 -0.2389
 3960TIP3    H112309   2.818   3.813   0.795  0.3534  0.7666 -0.4764
 3960TIP3    H212310   2.946   3.735   0.811 -0.1948  0.1465  0.9449
 3961TIP3   OH212311   5.650   5.801   3.102 -0.3766  0.3204 -0.6849
 3961TIP3    H112312   5.703   5.833   3.029  0.8918  2.3603  1.0715
 3961TIP3    H212313   5.560   5.823   3.078  0.2915  3.7694 -0.3264
 3962TIP3   OH212314   4.056   4.469   4.122  0.3237  0.1856 -0.7250
 3962TIP3    H112315   3.982   4.410   4.139 -0.2272  0.7935 -0.9792
 3962TIP3    H212316   4.016   4.556   4.112  1.3547  1.0937  2.2995
 3963TIP3   OH212317   3.091   0.042   5.386 -0.0590  0.1288 -0.0945
 3963TIP3    H112318   3.063  -0.049   5.372 -1.8990  0.7408 -0.5737
 3963TIP3    H212319   3.130   0.068   5.303 -1.0201  0.2883 -0.5007
 3964TIP3   OH212320   5.729   4.282   2.401 -0.4381  0.4038 -0.5711
 3964TIP3    H112321   5.776   4.364   2.411 -1.8101  1.2249 -0.7862
 3964TIP3    H212322   5.713   4.274   2.307  0.2631 -0.4464 -0.6291
 3965TIP3   OH212323   2.576   4.491   1.744 -0.3607  0.0549  0.1008
 3965TIP3    H112324   2.629   4.414   1.759 -0.4486 -0.0804 -0.2652
 3965TIP3    H212325   2.550   4.485   1.652 -1.6897 -0.3065  0.4920
 3966TIP3   OH212326   0.142   3.936   0.677  0.1317  0.1519  0.1058
 3966TIP3    H112327   0.174   4.014   0.722 -0.6950  1.0228 -0.7700
 3966TIP3    H212328   0.136   3.963   0.585 -0.4848 -0.8474 -0.1507
 3967TIP3   OH212329   3.620   5.618   2.582  0.2921  0.1849  0.3138
 3967TIP3    H112330   3.602   5.654   2.495  1.0567  1.4886  0.6932
 3967TIP3    H212331   3.715   5.619   2.589  0.1817  1.9569  1.9514
 3968TIP3   OH212332   4.638   0.565   3.158 -0.3085  0.2423  0.0363
 3968TIP3    H112333   4.705   0.499   3.142  0.2290  0.3910  1.6398
 3968TIP3    H212334   4.567   0.542   3.097  1.2340  0.1855 -1.7794
 3969TIP3   OH212335   5.843   3.942   3.189 -0.6739 -0.0010 -0.3027
 3969TIP3    H112336   5.856   4.003   3.116 -0.6442 -0.3532 -0.5886
 3969TIP3    H212337   5.809   3.863   3.149 -0.3131 -0.3244  0.0260
 3970TIP3   OH212338   5.863   5.786   3.257  0.5105  0.4048  0.3656
 3970TIP3    H112339   5.845   5.833   3.339 -1.5601 -0.8441  0.6669
 3970TIP3    H212340   5.777   5.779   3.215  0.9379 -2.2507 -0.1272
 3971TIP3   OH212341   5.293   4.528   3.716 -0.5906  0.2393 -0.3011
 3971TIP3    H112342   5.312   4.604   3.771  0.6792  0.6554 -1.2935
 3971TIP3    H212343   5.220   4.556   3.660 -0.2211  0.6829 -0.5624
 3972TIP3   OH212344   5.224   4.674   2.883 -0.0299  0.2906  0.2538
 3972TIP3    H112345   5.129   4.685   2.876 -0.4914 -1.9338  2.4368
 3972TIP3    H212346   5.255   4.756   2.920 -1.3548  0.2477  1.4962
 3973TIP3   OH212347   0.656   3.846   3.405  0.0712 -0.6940 -0.4630
 3973TIP3    H112348   0.617   3.773   3.357  0.2562 -1.0325 -0.0996
 3973TIP3    H212349   0.681   3.909   3.338 -1.8579 -0.1117 -0.6608
 3974TIP3   OH212350   3.772   6.031   1.507 -0.7593 -0.1486 -0.6626
 3974TIP3    H112351   3.736   5.952   1.465 -2.4643  0.1886  0.1344
 3974TIP3    H212352   3.722   6.103   1.469 -0.8386  0.3414  0.3477
 3975TIP3   OH212353   3.970   0.506   1.600  0.1127  0.0117  0.3645
 3975TIP3    H112354   3.889   0.535   1.642  0.7108  0.4844  1.2018
 3975TIP3    H212355   4.024   0.585   1.593  1.3404 -0.6683  1.7386
 3976TIP3   OH212356   4.926   6.068   5.936  0.1470 -0.0663 -0.1756
 3976TIP3    H112357   5.003   6.111   5.972  0.7791 -1.0333 -0.3664
 3976TIP3    H212358   4.872   6.139   5.901  0.7186  0.6476  0.4043
 3977TIP3   OH212359   4.014   0.017   3.291  0.4247  0.3436 -0.2696
 3977TIP3    H112360   3.952   0.012   3.365  0.9059  0.8133  0.1742
 3977TIP3    H212361   4.057  -0.068   3.290 -0.9252 -0.3499 -1.2060
 3978TIP3   OH212362   5.505   0.173   2.503  0.6414  0.2848  0.2234
 3978TIP3    H112363   5.563   0.140   2.572  2.9282  2.0140 -0.8094
 3978TIP3    H212364   5.480   0.260   2.533 -1.0987 -0.2694  0.4352
 3979TIP3   OH212365   0.053   4.339   1.122 -0.1510  0.2711  0.3547
 3979TIP3    H112366   0.072   4.376   1.036 -0.0990  2.2606  1.2031
 3979TIP3    H212367  -0.016   4.274   1.105  0.6549 -0.1711 -1.3327
 3980TIP3   OH212368   5.060   0.130   5.665  0.3994  0.8418 -0.4635
 3980TIP3    H112369   5.124   0.112   5.595  0.8973  0.7463  0.0156
 3980TIP3    H212370   5.041   0.223   5.656  1.6672  1.1889  0.2727
 3981TIP3   OH212371   4.272   4.386   0.497  0.2635  0.0307 -0.2363
 3981TIP3    H112372   4.258   4.481   0.490  0.1968  0.0368 -0.0047
 3981TIP3    H212373   4.364   4.377   0.519 -0.2717  0.1364  2.1955
 3982TIP3   OH212374   5.230   4.361   1.882 -0.1237  0.2120  0.1067
 3982TIP3    H112375   5.280   4.346   1.801  0.1223  0.0554  0.2876
 3982TIP3    H212376   5.165   4.291   1.884 -1.2980  1.2629 -0.8719
 3983TIP3   OH212377   5.811   4.759   3.507  0.9365  0.8098 -0.6029
 3983TIP3    H112378   5.810   4.668   3.477  1.8796 -0.1401  2.1222
 3983TIP3    H212379   5.900   4.789   3.488  1.5361  0.2055  1.1251
 3984TIP3   OH212380   3.687   2.331   4.935 -0.8691  0.0393  0.2266
 3984TIP3    H112381   3.706   2.252   4.885  0.7568  1.2216 -1.0571
 3984TIP3    H212382   3.769   2.350   4.982 -1.5959  0.3298  1.3922
 3985TIP3   OH212383   2.999   5.044   1.954 -0.2064 -0.2888 -0.3980
 3985TIP3    H112384   3.004   5.057   1.859  1.4046 -0.5298 -0.3654
 3985TIP3    H212385   3.048   5.117   1.991  0.0815 -0.7803  0.1954
 3986TIP3   OH212386   4.306   4.790   1.973  0.4568 -0.0142  0.2633
 3986TIP3    H112387   4.385   4.765   2.022 -0.2390 -0.5050  1.1354
 3986TIP3    H212388   4.278   4.872   2.013 -0.0793 -0.3822  0.6367
 3987TIP3   OH212389   4.570   2.502   4.117  0.2196  0.2881 -0.0414
 3987TIP3    H112390   4.505   2.458   4.172  1.6403 -1.7296  0.0441
 3987TIP3    H212391   4.530   2.588   4.098 -1.7045 -0.2417  1.4178
 3988TIP3   OH212392   4.308   1.084   5.647 -0.0579  0.2941  0.2361
 3988TIP3    H112393   4.292   1.024   5.720 -1.0896  2.3752  1.7623
 3988TIP3    H212394   4.404   1.089   5.641  0.0369  0.6134  1.8863
 3989TIP3   OH212395   3.317   4.768   0.880 -0.3355 -0.2161 -0.1082
 3989TIP3    H112396   3.367   4.845   0.907 -0.5488  0.0950 -0.5884
 3989TIP3    H212397   3.374   4.694   0.900  0.0865  0.1013 -0.1280
 3990TIP3   OH212398   4.964   5.640   4.045  0.2835  0.1977  0.4699
 3990TIP3    H112399   4.942   5.629   3.952 -1.3493 -1.2166  0.9944
 3990TIP3    H212400   5.058   5.662   4.045  0.2659  0.3804 -1.5115
 3991TIP3   OH212401   4.805   0.363   3.081  0.3344 -0.1316  0.5024
 3991TIP3    H112402   4.885   0.352   3.133  1.1101  0.1809 -0.6050
 3991TIP3    H212403   4.782   0.274   3.053  0.5705 -0.1653  0.4140
 3992TIP3   OH212404   5.984   4.171   3.882  0.4997 -0.3065 -0.4127
 3992TIP3    H112405   5.957   4.114   3.810  1.1883 -1.3463  0.1438
 3992TIP3    H212406   5.904   4.216   3.907  0.6206  1.5898 -3.1357
 3993TIP3   OH212407   4.427   5.009   1.515 -0.0950 -0.3097  0.7750
 3993TIP3    H112408   4.447   4.993   1.423 -2.4151 -0.3699  0.2371
 3993TIP3    H212409   4.488   4.953   1.563  0.4989 -0.9990 -0.7486
 3994TIP3   OH212410   4.391   2.634   2.635  0.2096  0.1833  0.2461
 3994TIP3    H112411   4.368   2.689   2.710  1.4201 -0.0003  0.7653
 3994TIP3    H212412   4.484   2.651   2.620  0.1881 -0.4511 -0.6472
 3995TIP3   OH212413   0.558   4.504   5.027  0.3171  0.5212  0.2941
 3995TIP3    H112414   0.562   4.411   5.004 -0.7490  0.1424  1.5708
 3995TIP3    H212415   0.561   4.549   4.943 -0.0518 -0.7017 -0.3938
 3996TIP3   OH212416   5.188   5.797   3.438 -0.2584 -0.5753  0.4867
 3996TIP3    H112417   5.269   5.803   3.488  0.7863 -0.4328 -1.1973
 3996TIP3    H212418   5.167   5.888   3.414 -2.2492 -0.3241  2.9568
 3997TIP3   OH212419   3.519   4.397   1.332 -0.0218  0.2861  0.2906
 3997TIP3    H112420   3.478   4.386   1.419 -0.2084 -1.3849  0.0233
 3997TIP3    H212421   3.612   4.383   1.348 -0.1226 -0.6032  0.1421
 3998TIP3   OH212422   3.342   3.260   2.287  0.7949  0.1400  0.0265
 3998TIP3    H112423   3.353   3.279   2.380 -1.0169 -1.0450  0.5161
 3998TIP3    H212424   3.259   3.302   2.264  0.5152 -0.7953 -0.6838
 3999TIP3   OH212425   5.304   0.232   4.885 -0.7630 -0.5004  0.2267
 3999TIP3    H112426   5.300   0.257   4.792 -1.5116 -0.7566  0.1830
 3999TIP3    H212427   5.223   0.182   4.899 -0.4088 -0.8897  0.8935
 4000TIP3   OH212428   0.342   4.686   4.091  0.0410 -0.6058 -0.3592
 4000TIP3    H112429   0.339   4.612   4.029  0.3446 -1.4039  0.5739
 4000TIP3    H212430   0.430   4.682   4.128  0.6179  1.1990 -1.4678
 4001TIP3   OH212431   4.454   5.074   1.198 -0.4569 -0.2790  0.1967
 4001TIP3    H112432   4.362   5.057   1.177 -0.3999 -0.2951 -0.0414
 4001TIP3    H212433   4.502   5.046   1.120 -0.0815 -1.9943  1.0077
 4002TIP3   OH212434   2.356   4.656   1.661  0.2541 -0.5069  0.4819
 4002TIP3    H112435   2.394   4.616   1.739 -0.5188 -1.2749  0.4731
 4002TIP3    H212436   2.262   4.654   1.676  0.0813 -0.9388 -0.6028
 4003TIP3   OH212437   2.852   1.796   5.110 -0.2570  0.3468 -0.1711
 4003TIP3    H112438   2.935   1.828   5.144 -1.0075  1.7816  0.3579
 4003TIP3    H212439   2.826   1.861   5.044 -1.7063  0.7543  0.7740
 4004TIP3   OH212440   2.351   1.568   2.041  0.9195  0.0504  0.1205
 4004TIP3    H112441   2.392   1.487   2.009  0.0555 -1.0968  1.8480
 4004TIP3    H212442   2.415   1.605   2.101  1.2611  0.6008 -0.5735
 4005TIP3   OH212443   0.136   4.969   3.218 -0.2446  0.4881 -0.2157
 4005TIP3    H112444   0.209   4.981   3.279 -1.2765  2.2486  0.7166
 4005TIP3    H212445   0.065   4.935   3.272 -1.1327  1.9503 -0.4283
 4006TIP3   OH212446   6.002   1.609   3.080  0.8778 -0.9506  0.8324
 4006TIP3    H112447   6.058   1.671   3.034 -0.0922 -0.2917  0.5118
 4006TIP3    H212448   5.952   1.566   3.011 -0.8469  0.3011  1.2490
 4007TIP3   OH212449   3.942   4.731   2.650 -0.5009  0.1922 -0.1669
 4007TIP3    H112450   3.928   4.825   2.641 -0.8813  0.0230 -1.3522
 4007TIP3    H212451   3.876   4.703   2.713  1.1539  1.0994  2.0598
 4008TIP3   OH212452   1.160   2.414   1.843  0.0696 -0.7173 -0.2940
 4008TIP3    H112453   1.218   2.450   1.776  1.2463 -0.1097  1.0125
 4008TIP3    H212454   1.199   2.329   1.865  1.1495  0.1731  1.3800
 4009TIP3   OH212455   4.867   5.077   3.748  0.7009  0.0557  0.2036
 4009TIP3    H112456   4.819   5.085   3.830  1.2518 -0.7605  0.6195
 4009TIP3    H212457   4.821   5.008   3.700  0.4056  0.5014 -0.1577
 4010TIP3   OH212458   3.336   5.412   1.155  0.3620 -0.3226  0.5717
 4010TIP3    H112459   3.306   5.335   1.204 -1.2290  0.9654  1.6906
 4010TIP3    H212460   3.285   5.409   1.074  0.5176 -0.6163  0.4848
 4011TIP3   OH212461   5.311   4.803   1.645 -0.4727 -0.0986 -0.1029
 4011TIP3    H112462   5.378   4.782   1.710 -1.3073  0.1666  0.8493
 4011TIP3    H212463   5.352   4.869   1.589  0.4564 -0.7533 -0.1932
 4012TIP3   OH212464   2.477   4.367   5.142  0.0394 -0.0543  0.2279
 4012TIP3    H112465   2.445   4.451   5.110  0.4524 -0.2381 -0.6892
 4012TIP3    H212466   2.463   4.370   5.236  0.2206  1.1151  0.2234
 4013TIP3   OH212467   4.507   2.963   2.519  0.0971 -0.4203 -0.2513
 4013TIP3    H112468   4.560   2.885   2.530  0.7247 -0.2207 -1.6387
 4013TIP3    H212469   4.499   3.000   2.607  0.7319 -1.4325  0.2422
 4014TIP3   OH212470   0.926   3.430   3.645  0.2148 -0.6153 -0.0986
 4014TIP3    H112471   0.980   3.359   3.611  3.0420  1.8390 -0.9586
 4014TIP3    H212472   0.984   3.506   3.646 -2.6659  1.6690  0.9072
 4015TIP3   OH212473   5.451   3.359   2.679 -0.6192  0.3097 -0.3388
 4015TIP3    H112474   5.433   3.300   2.753  0.6599 -1.9006 -1.7597
 4015TIP3    H212475   5.449   3.302   2.602  2.4340  1.8078 -1.5699
 4016TIP3   OH212476   1.613   0.088   3.308  0.5630 -0.3699 -0.1701
 4016TIP3    H112477   1.701   0.055   3.295  0.9559 -0.3233  2.0578
 4016TIP3    H212478   1.620   0.182   3.296  0.2350 -0.6443 -2.6944
 4017TIP3   OH212479   3.940   1.131   3.075 -0.0985  0.0965  0.0555
 4017TIP3    H112480   3.882   1.169   3.141 -0.1268  0.2298 -0.0459
 4017TIP3    H212481   4.026   1.167   3.095 -0.2951  0.9430 -0.6081
 4018TIP3   OH212482   5.178   1.878   4.708  0.1068  0.1674  0.2283
 4018TIP3    H112483   5.094   1.834   4.691  0.0490  0.5690 -0.5571
 4018TIP3    H212484   5.241   1.832   4.653 -0.1266  1.6315 -1.3070
 4019TIP3   OH212485   1.247   1.736   3.741 -0.0455  0.4153  0.1017
 4019TIP3    H112486   1.249   1.677   3.665 -2.0225  2.4627 -1.6184
 4019TIP3    H212487   1.156   1.733   3.771  0.3039  1.0919  1.2468
 4020TIP3   OH212488   4.776   3.791   2.746  0.3511 -0.4578 -0.1185
 4020TIP3    H112489   4.831   3.844   2.689  1.1146  0.3072  1.2917
 4020TIP3    H212490   4.763   3.846   2.824 -0.4861 -1.5603  0.5352
 4021TIP3   OH212491   5.391   4.142   3.031  0.0888  0.3995  0.2211
 4021TIP3    H112492   5.376   4.227   2.989  1.9646  0.8334  0.3673
 4021TIP3    H212493   5.408   4.082   2.959 -0.1918  0.3780  0.1726
 4022TIP3   OH212494   0.604   5.257   3.839  0.5462  0.1832  0.1829
 4022TIP3    H112495   0.608   5.296   3.752  2.4942 -0.4195 -0.0084
 4022TIP3    H212496   0.562   5.324   3.893 -0.5833  0.6049 -1.1681
 4023TIP3   OH212497   2.241   4.343   3.736  0.1158  0.2064 -0.1139
 4023TIP3    H112498   2.150   4.314   3.728  0.0733  0.6119 -1.2520
 4023TIP3    H212499   2.249   4.375   3.826 -0.7007 -0.3941  0.1736
 4024TIP3   OH212500   5.329   3.817   2.875 -0.4930  0.7644 -0.5376
 4024TIP3    H112501   5.261   3.873   2.836 -1.1218  1.1912  1.1187
 4024TIP3    H212502   5.411   3.862   2.854 -0.8800  1.4284 -0.6622
 4025TIP3   OH212503   2.651   5.424   3.347 -0.3745 -0.1126  0.7699
 4025TIP3    H112504   2.690   5.499   3.304 -1.0469  0.6892  1.5290
 4025TIP3    H212505   2.655   5.445   3.441 -0.4074 -1.0911  1.0000
 4026TIP3   OH212506   3.359   4.743   4.873 -0.1208  0.1210  0.2291
 4026TIP3    H112507   3.430   4.755   4.810 -0.6492 -0.6468 -0.5230
 4026TIP3    H212508   3.402   4.710   4.952  0.6276  1.6897  0.4935
 4027TIP3   OH212509   5.615   3.550   5.679 -0.4013  0.0119  0.2392
 4027TIP3    H112510   5.615   3.455   5.677 -0.4450  0.0257 -1.0494
 4027TIP3    H212511   5.707   3.575   5.670 -0.4094  0.0967  0.3818
 4028TIP3   OH212512   3.457   3.315   2.933 -0.4607  0.5966 -0.1793
 4028TIP3    H112513   3.516   3.350   2.867  0.1206  2.1749  1.1572
 4028TIP3    H212514   3.384   3.377   2.937 -1.1550 -0.1914 -0.2743
 4029TIP3   OH212515   2.228   3.293   4.102 -0.0629 -0.6736  0.3543
 4029TIP3    H112516   2.189   3.290   4.189 -1.0501 -2.3231 -0.1067
 4029TIP3    H212517   2.190   3.371   4.061  0.9406  0.4946  1.6239
 4030TIP3   OH212518   2.568   5.289   0.749  0.3960 -0.0530 -0.5352
 4030TIP3    H112519   2.633   5.219   0.740  0.0731 -0.2200 -1.7090
 4030TIP3    H212520   2.554   5.320   0.659  0.0541  1.0804 -0.0925
 4031TIP3   OH212521   3.806   3.673   1.614  0.2838 -0.0895  0.1980
 4031TIP3    H112522   3.767   3.672   1.526 -2.9707  1.1329  1.5330
 4031TIP3    H212523   3.761   3.602   1.660  1.1205  0.0428  1.2255
 4032TIP3   OH212524   2.651   5.429   2.341 -0.1218 -0.3676 -0.0945
 4032TIP3    H112525   2.695   5.382   2.270 -0.1374 -0.0043 -0.3462
 4032TIP3    H212526   2.621   5.361   2.400 -1.7601 -0.7866 -1.3864
 4033TIP3   OH212527   5.088   5.110   2.939  0.1603 -0.6269 -0.3964
 4033TIP3    H112528   5.027   5.103   2.866  1.1186 -0.8010 -1.1855
 4033TIP3    H212529   5.169   5.142   2.900  0.9284 -1.4846  0.4603
 4034TIP3   OH212530   3.098   0.710   1.978 -0.0763  0.1560  0.4439
 4034TIP3    H112531   3.012   0.748   1.992 -0.5869 -0.3639 -1.1669
 4034TIP3    H212532   3.128   0.748   1.895  0.7132 -0.5799  0.3865
 4035TIP3   OH212533   0.817   4.329   2.769 -0.4642  0.3596  0.0137
 4035TIP3    H112534   0.760   4.256   2.746 -1.0058  0.2246  1.6790
 4035TIP3    H212535   0.906   4.295   2.763 -0.7089 -0.3744  0.5694
 4036TIP3   OH212536   3.202   5.590   3.245  0.7453 -0.3614  0.0032
 4036TIP3    H112537   3.154   5.557   3.321 -0.2428 -1.7885 -1.2119
 4036TIP3    H212538   3.290   5.607   3.278  0.3737 -1.0938  1.4280
 4037TIP3   OH212539   0.888   2.874   2.021  0.4149  0.0598 -0.4114
 4037TIP3    H112540   0.793   2.864   2.013  0.4385 -0.6866  0.1309
 4037TIP3    H212541   0.921   2.864   1.932  0.0234 -0.1108 -0.5389
 4038TIP3   OH212542   1.701   5.461   1.988  0.4842  0.1125  0.4430
 4038TIP3    H112543   1.627   5.437   1.933  1.3400 -1.2825 -0.1410
 4038TIP3    H212544   1.663   5.510   2.060 -1.0878 -1.1786  0.5143
 4039TIP3   OH212545   4.530   0.069   4.465  0.2367  0.1847  0.2874
 4039TIP3    H112546   4.613   0.044   4.506  0.6358 -0.5990 -0.9892
 4039TIP3    H212547   4.502   0.147   4.514  1.7983  0.5493  0.6357
 4040TIP3   OH212548   4.767   5.264   2.480 -0.4227 -0.1995  0.2916
 4040TIP3    H112549   4.705   5.315   2.428 -0.5121  0.0542  0.6495
 4040TIP3    H212550   4.794   5.323   2.550  0.5434 -0.1651 -0.1098
 4041TIP3   OH212551   5.150   4.093   3.476 -0.4323 -0.8146 -0.0939
 4041TIP3    H112552   5.133   4.187   3.464 -1.5848 -1.0032  0.0495
 4041TIP3    H212553   5.180   4.063   3.390 -2.5400 -0.8403 -0.8308
 4042TIP3   OH212554   4.909   4.330   3.844 -0.2342 -0.0690 -0.0806
 4042TIP3    H112555   4.901   4.237   3.865 -1.6724  0.3138  1.1371
 4042TIP3    H212556   4.819   4.363   3.845  0.3008  1.4399 -0.0625
 4043TIP3   OH212557   1.621   5.909   2.913  0.3495 -0.1670  0.0318
 4043TIP3    H112558   1.700   5.959   2.893 -0.5437  1.9296  1.6155
 4043TIP3    H212559   1.555   5.944   2.854  1.1761 -3.8489 -3.3267
 4044TIP3   OH212560   3.188   1.121   1.724 -0.2429 -0.4872 -0.2911
 4044TIP3    H112561   3.282   1.139   1.712 -0.5647  1.2559 -0.3347
 4044TIP3    H212562   3.180   1.027   1.709  1.2725 -0.4057 -1.8693
 4045TIP3   OH212563   0.019   4.725   2.327 -0.2034 -0.2770  0.2488
 4045TIP3    H112564   0.013   4.819   2.309  3.2918  0.4846  2.6430
 4045TIP3    H212565   0.053   4.687   2.246 -3.2660  0.1894 -1.3407
 4046TIP3   OH212566   0.887   5.298   4.510 -0.3197 -0.2229  0.0276
 4046TIP3    H112567   0.921   5.302   4.600 -0.6755  0.2950  0.1418
 4046TIP3    H212568   0.810   5.354   4.511 -0.0894  0.1194 -0.7052
 4047TIP3   OH212569   5.537   5.385   2.847  0.4245 -0.4914 -0.1677
 4047TIP3    H112570   5.499   5.445   2.783  0.4115 -0.3758 -0.0511
 4047TIP3    H212571   5.591   5.441   2.903 -1.2806 -0.2555  1.2701
 4048TIP3   OH212572   5.708   2.273   2.794  0.2013 -0.1227 -0.8399
 4048TIP3    H112573   5.615   2.271   2.773  0.4821 -0.0937 -2.1113
 4048TIP3    H212574   5.711   2.277   2.890 -1.1008  0.2818 -0.8093
 4049TIP3   OH212575   4.660   2.341   1.717 -0.2973 -0.1195  0.1147
 4049TIP3    H112576   4.636   2.385   1.636  0.7986  0.4080  0.0764
 4049TIP3    H212577   4.646   2.248   1.698  1.0020 -0.0876 -1.0386
 4050TIP3   OH212578   0.883   4.897   1.799 -0.4595 -0.2837 -0.1984
 4050TIP3    H112579   0.963   4.925   1.753 -0.0004  0.6194  1.1253
 4050TIP3    H212580   0.817   4.891   1.730  0.5790 -0.3914 -1.2098
 4051TIP3   OH212581   5.657   4.179   3.551  0.1559  0.3234  0.6812
 4051TIP3    H112582   5.593   4.210   3.616 -2.7770  0.3751 -2.0699
 4051TIP3    H212583   5.628   4.090   3.530  1.8603 -0.1734  0.4143
 4052TIP3   OH212584   5.572   4.058   4.544  0.0758 -0.1083 -0.0341
 4052TIP3    H112585   5.620   3.991   4.593  1.2884 -0.5286 -1.7606
 4052TIP3    H212586   5.629   4.134   4.545 -1.4463  1.0387  2.2007
 4053TIP3   OH212587   4.947   4.792   3.418 -0.0458 -0.5386  0.0053
 4053TIP3    H112588   4.992   4.764   3.338  0.4315  0.7514 -0.1912
 4053TIP3    H212589   4.854   4.785   3.397  0.0738  0.5780 -0.9582
 4054TIP3   OH212590   4.468   4.761   5.363  0.2756  0.3851  0.2154
 4054TIP3    H112591   4.398   4.776   5.299  1.3036 -0.5030 -1.1390
 4054TIP3    H212592   4.528   4.833   5.350  0.9001 -0.2380 -0.3967
 4055TIP3   OH212593   1.224   4.622   4.310  0.5390 -0.1427 -0.5703
 4055TIP3    H112594   1.256   4.694   4.256  1.3285 -1.7251 -2.2785
 4055TIP3    H212595   1.136   4.605   4.277  0.5241 -0.2557 -0.4725
 4056TIP3   OH212596   3.988   2.444   2.453  0.3901  0.4116 -0.4619
 4056TIP3    H112597   3.970   2.431   2.546 -1.4226 -0.1363 -0.8703
 4056TIP3    H212598   4.061   2.506   2.451  1.1238 -0.3598  1.3324
 4057TIP3   OH212599   1.783   3.238   1.319 -0.3391  0.4187  0.0068
 4057TIP3    H112600   1.863   3.254   1.268  1.3332  1.9437  3.0069
 4057TIP3    H212601   1.773   3.143   1.318  1.0624  0.2624 -1.0760
 4058TIP3   OH212602   0.269   5.892   2.202 -0.3833 -0.4408 -0.1790
 4058TIP3    H112603   0.232   5.970   2.244 -1.9710 -0.7040 -1.0484
 4058TIP3    H212604   0.195   5.832   2.194  0.7809 -1.9933  0.3205
 4059TIP3   OH212605   4.025   4.935   3.888  0.6300 -0.8395 -0.1781
 4059TIP3    H112606   4.081   4.980   3.824 -2.7022  2.9514 -0.6012
 4059TIP3    H212607   4.068   4.950   3.972  1.5596 -0.1442 -0.7695
 4060TIP3   OH212608   5.608   5.614   3.523 -0.1296 -0.5198 -0.2430
 4060TIP3    H112609   5.568   5.680   3.467 -1.9137 -0.1697  1.3866
 4060TIP3    H212610   5.666   5.662   3.581 -0.0948 -0.5915 -0.2172
 4061TIP3   OH212611   4.182   5.461   3.518  0.3006  0.1192 -0.2228
 4061TIP3    H112612   4.244   5.395   3.488  0.5500 -0.2080  0.9862
 4061TIP3    H212613   4.229   5.544   3.510  0.0178  0.1555 -1.6550
 4062TIP3   OH212614   3.957   4.771   4.748 -0.1969 -0.2902 -0.0780
 4062TIP3    H112615   3.915   4.699   4.795 -0.5781  1.0602  1.7415
 4062TIP3    H212616   3.983   4.832   4.817  0.8627  0.9287 -1.5174
 4063TIP3   OH212617   6.035   3.323   4.099  0.1369  0.2552  0.3973
 4063TIP3    H112618   6.093   3.398   4.087  0.1199 -0.0024 -1.3932
 4063TIP3    H212619   5.946   3.358   4.089  0.1723 -0.2572 -2.1882
 4064TIP3   OH212620   5.023   5.561   3.221  0.0092  0.3524 -0.1791
 4064TIP3    H112621   4.960   5.510   3.170  0.6262 -0.8835  0.2750
 4064TIP3    H212622   5.087   5.497   3.252  0.6735  1.3684  0.6081
 4065TIP3   OH212623   3.558   4.056   2.130 -0.2424  0.0334 -0.2407
 4065TIP3    H112624   3.539   4.062   2.036  1.0107  3.1441 -0.3580
 4065TIP3    H212625   3.653   4.065   2.135 -0.1849 -1.2535  1.2804
 4066TIP3   OH212626   5.454   5.268   1.945 -0.3141 -0.0715  0.1606
 4066TIP3    H112627   5.410   5.190   1.912  0.6102 -0.7812  0.5983
 4066TIP3    H212628   5.486   5.313   1.867 -2.9556  1.1591 -0.2750
 4067TIP3   OH212629   0.943   1.025   3.458 -0.5610  0.2956  0.6310
 4067TIP3    H112630   1.019   1.023   3.400 -0.9452  2.3410 -0.0169
 4067TIP3    H212631   0.934   0.936   3.491  0.0133 -0.7654 -2.0105
 4068TIP3   OH212632   0.825   5.537   3.997  0.7040 -0.9410 -0.1642
 4068TIP3    H112633   0.864   5.483   4.065 -0.6442 -0.4441  1.0479
 4068TIP3    H212634   0.860   5.503   3.915  1.0912 -2.6203  0.6811
 4069TIP3   OH212635   4.449   5.245   3.146  0.1401  0.1450  0.0886
 4069TIP3    H112636   4.478   5.307   3.079  0.2294 -0.5530 -0.5328
 4069TIP3    H212637   4.482   5.281   3.228  0.9176  0.4809 -0.3619
 4070TIP3   OH212638   4.459   5.754   1.503  0.3613 -0.0436 -0.1638
 4070TIP3    H112639   4.509   5.689   1.454  1.3371 -0.0861  0.8874
 4070TIP3    H212640   4.524   5.803   1.552 -0.6910 -0.9912  2.2936
 4071TIP3   OH212641   2.324   5.985   4.537  0.4739  0.0127 -0.5269
 4071TIP3    H112642   2.246   5.933   4.557 -0.1424  1.2294  0.2851
 4071TIP3    H212643   2.367   5.997   4.621  1.8130 -1.0545 -1.0409
 4072TIP3   OH212644   4.498   3.717   1.862 -0.5610  0.7925 -0.1635
 4072TIP3    H112645   4.443   3.639   1.871 -0.7089  0.8799 -0.3033
 4072TIP3    H212646   4.453   3.785   1.913 -0.3495  0.7438  0.0892
 4073TIP3   OH212647   1.815   5.016   4.075  0.0584 -0.9138  0.4432
 4073TIP3    H112648   1.884   5.018   4.142 -1.2674 -1.0858  1.8367
 4073TIP3    H212649   1.862   5.026   3.992  1.6826 -0.1769  1.4255
 4074TIP3   OH212650   4.206   4.692   3.754  0.0869  0.5268  0.2496
 4074TIP3    H112651   4.150   4.615   3.751 -1.9083  1.8726  2.0638
 4074TIP3    H212652   4.195   4.732   3.668  0.9343 -1.0319 -0.6162
 4075TIP3   OH212653   5.519   5.703   0.670 -0.2503 -0.1516  0.5168
 4075TIP3    H112654   5.576   5.776   0.695  1.5444 -0.9627 -1.0851
 4075TIP3    H212655   5.568   5.625   0.696 -0.6827 -0.8616 -0.7717
 4076TIP3   OH212656   5.414   3.169   1.137 -0.3330  0.2272  0.0679
 4076TIP3    H112657   5.403   3.251   1.088 -4.0961 -0.9158 -1.2249
 4076TIP3    H212658   5.388   3.101   1.074  0.9855 -1.8203  1.6929
 4077TIP3   OH212659   5.435   0.800   0.461 -0.4881  0.3239 -0.1784
 4077TIP3    H112660   5.465   0.751   0.538  1.3715  2.4620  0.5250
 4077TIP3    H212661   5.349   0.834   0.486 -0.4894 -0.1343  0.4388
 4078TIP3   OH212662   3.408   1.500   0.197  0.0727  0.2754  1.0236
 4078TIP3    H112663   3.339   1.480   0.134 -0.6044 -0.2826  1.9326
 4078TIP3    H212664   3.428   1.593   0.183  0.8699 -0.1634 -0.9250
 4079TIP3   OH212665   4.975   2.116   4.422  0.0941  0.0180  0.3606
 4079TIP3    H112666   4.975   2.040   4.364 -3.0951  1.1712 -1.2597
 4079TIP3    H212667   4.973   2.079   4.511 -3.1710 -1.8729 -0.4151
 4080TIP3   OH212668   5.754   5.902   2.224 -0.1629 -0.0011  0.0689
 4080TIP3    H112669   5.768   5.991   2.194  0.6392  1.1748  3.6693
 4080TIP3    H212670   5.675   5.907   2.277 -0.9355 -1.7619 -0.8697
 4081TIP3   OH212671   4.221   3.609   2.421 -0.0144  0.3193  0.6928
 4081TIP3    H112672   4.292   3.554   2.455 -0.8273 -1.1050  0.1424
 4081TIP3    H212673   4.194   3.566   2.340 -0.2095  1.9323 -0.1144
 4082TIP3   OH212674   0.141   5.232   2.965  0.1512  0.1460 -0.3737
 4082TIP3    H112675   0.073   5.166   2.981 -0.0403  0.7483  1.3984
 4082TIP3    H212676   0.142   5.286   3.044  0.5916  2.0272 -1.6071
 4083TIP3   OH212677   4.242   2.653   1.698  0.4710 -0.5953  0.3953
 4083TIP3    H112678   4.234   2.631   1.791  0.9402 -0.9739  0.3468
 4083TIP3    H212679   4.166   2.611   1.657 -0.2455  0.3445  0.7416
 4084TIP3   OH212680   5.699   0.429   4.367 -0.4167 -0.7716  0.3564
 4084TIP3    H112681   5.756   0.354   4.351 -2.9898 -2.4397 -1.2940
 4084TIP3    H212682   5.722   0.493   4.300 -0.9604 -1.7260 -0.7442
 4085TIP3   OH212683   3.096   4.513   5.664 -0.2255 -0.6309 -0.3892
 4085TIP3    H112684   3.183   4.472   5.656 -0.0594 -0.1775 -1.0131
 4085TIP3    H212685   3.050   4.486   5.584  0.1037  0.8904 -1.1067
 4086TIP3   OH212686   4.290   4.220   3.162 -0.1246  0.2983 -0.1472
 4086TIP3    H112687   4.263   4.145   3.215  1.7915 -1.4170 -1.4879
 4086TIP3    H212688   4.232   4.219   3.087 -0.5815  0.6210  0.1977
 4087TIP3   OH212689   5.115   3.977   3.712 -0.1748 -0.2449  0.4275
 4087TIP3    H112690   5.184   3.970   3.777  0.0686  2.0813  0.4736
 4087TIP3    H212691   5.157   4.015   3.635 -1.0785 -0.1905 -0.0545
 4088TIP3   OH212692   0.615   4.595   3.004 -0.0916 -0.6229 -0.7760
 4088TIP3    H112693   0.667   4.533   3.055  0.5691  0.0167 -0.6536
 4088TIP3    H212694   0.672   4.619   2.931 -0.7196 -0.9097 -1.3580
 4089TIP3   OH212695   5.737   4.583   0.320 -0.7782 -0.8220 -0.1083
 4089TIP3    H112696   5.807   4.522   0.342 -1.1420 -1.0650  0.3840
 4089TIP3    H212697   5.776   4.643   0.257  0.0552 -0.5644  0.6530
 4090TIP3   OH212698   0.339   4.984   3.422  0.4937  0.1841 -0.1859
 4090TIP3    H112699   0.411   5.028   3.377  0.9341 -0.1457  0.1889
 4090TIP3    H212700   0.356   4.999   3.515 -0.7940  1.4700 -0.1312
 4091TIP3   OH212701   5.347   2.356   4.491  0.6767  0.0851 -0.3037
 4091TIP3    H112702   5.322   2.273   4.451  3.4597  0.0994 -2.1525
 4091TIP3    H212703   5.396   2.332   4.569  0.3473  0.0359 -0.1072
 4092TIP3   OH212704   0.419   0.386   2.759 -0.4076  0.5022 -0.3791
 4092TIP3    H112705   0.388   0.317   2.701  1.4823 -0.1268 -0.6678
 4092TIP3    H212706   0.382   0.365   2.844 -2.1585  0.7309 -1.0537
 4093TIP3   OH212707   2.317   4.064   4.306 -0.3204  0.4386  0.4797
 4093TIP3    H112708   2.377   4.098   4.241 -2.7340  2.0695 -0.9796
 4093TIP3    H212709   2.348   4.100   4.389  0.6624  1.3099 -0.2503
 4094TIP3   OH212710   0.707   0.554   0.107  0.9074 -0.5472 -0.1058
 4094TIP3    H112711   0.775   0.541   0.042  0.0846  1.0580 -1.3269
 4094TIP3    H212712   0.663   0.635   0.080 -2.3464 -2.2284 -0.1250
 4095TIP3   OH212713   2.734   4.575   3.661  0.5003 -0.3440  0.2752
 4095TIP3    H112714   2.749   4.515   3.588  0.4267 -0.2238  0.1618
 4095TIP3    H212715   2.705   4.519   3.733  2.3611 -0.7010  0.7681
 4096TIP3   OH212716   1.138   5.589   5.497  0.5734  0.2873  0.4203
 4096TIP3    H112717   1.150   5.521   5.563  0.0333  0.1504  0.3826
 4096TIP3    H212718   1.213   5.647   5.508 -0.2775  1.0928  2.1429
 4097TIP3   OH212719   4.751   1.727   5.054 -0.3181  0.0414 -0.5077
 4097TIP3    H112720   4.738   1.820   5.073  1.9467  0.3335 -0.2019
 4097TIP3    H212721   4.746   1.684   5.139 -1.0295 -0.0741 -0.6068
 4098TIP3   OH212722   1.703   3.953   3.734  0.1106  0.4475 -0.4047
 4098TIP3    H112723   1.664   4.016   3.673 -0.1264 -0.5702 -1.3231
 4098TIP3    H212724   1.722   3.876   3.680 -0.2431 -0.5237  0.8354
 4099TIP3   OH212725   1.478   0.749   1.623 -0.3432 -0.1898 -0.1738
 4099TIP3    H112726   1.449   0.825   1.673 -1.2450 -0.0019 -0.9713
 4099TIP3    H212727   1.572   0.744   1.639 -0.0761  1.7556 -0.9910
 4100TIP3   OH212728   1.175   5.184   2.185 -0.2297  0.1919  0.1032
 4100TIP3    H112729   1.109   5.138   2.237  1.0397  0.3985  1.9763
 4100TIP3    H212730   1.128   5.258   2.147 -1.3153 -0.2616  0.5493
 4101TIP3   OH212731   5.443   1.077   5.065 -0.2581 -0.2912 -0.1127
 4101TIP3    H112732   5.367   1.041   5.017 -0.4648  0.8837 -0.6856
 4101TIP3    H212733   5.503   1.106   4.996 -1.0021  2.3540  0.3097
 4102TIP3   OH212734   4.943   4.666   2.035  0.5328 -0.6717 -0.3271
 4102TIP3    H112735   4.893   4.667   2.117  0.6925  0.1267 -0.2391
 4102TIP3    H212736   5.034   4.659   2.063  0.6376  0.2905 -0.4067
 4103TIP3   OH212737   1.733   3.989   1.154  0.2358 -0.1477  0.0685
 4103TIP3    H112738   1.760   3.898   1.166  0.7476  0.1651  1.3398
 4103TIP3    H212739   1.800   4.027   1.097  0.6954 -0.2480  0.5390
 4104TIP3   OH212740   5.017   5.092   3.192 -0.0689 -0.1344 -0.2413
 4104TIP3    H112741   5.090   5.122   3.247  1.0161 -1.5224 -0.9100
 4104TIP3    H212742   5.047   5.107   3.103 -0.4237 -1.1044 -0.5252
 4105TIP3   OH212743   2.390   4.007   0.746  0.0097  0.0515 -0.6765
 4105TIP3    H112744   2.432   4.004   0.660 -0.5324 -0.4182 -0.9289
 4105TIP3    H212745   2.458   4.039   0.805  0.9686 -1.4755 -0.9310
 4106TIP3   OH212746   0.236   2.974   2.946 -0.8970 -0.0407  0.0078
 4106TIP3    H112747   0.282   2.932   2.873  0.1009 -0.2553  0.7445
 4106TIP3    H212748   0.144   2.957   2.929 -0.6142 -1.0138 -0.6426
 4107TIP3   OH212749   1.731   5.994   0.858 -0.1558 -0.0787 -0.0973
 4107TIP3    H112750   1.682   6.074   0.875  1.6404  0.8475  0.8242
 4107TIP3    H212751   1.805   6.021   0.803  0.0548 -1.2238 -0.3963
 4108TIP3   OH212752   4.794   4.267   2.095  0.6137  0.0190  0.4204
 4108TIP3    H112753   4.701   4.273   2.077  0.7879  0.1490 -0.4823
 4108TIP3    H212754   4.835   4.326   2.031  1.4598 -1.6611 -0.6348
 4109TIP3   OH212755   4.718   1.147   4.106  0.3498  0.1453  0.5048
 4109TIP3    H112756   4.713   1.147   4.201  0.7370  1.0732  0.5299
 4109TIP3    H212757   4.794   1.093   4.085  0.3995  0.1291  0.7331
 4110TIP3   OH212758   0.023   2.865   1.993  0.5733  0.4520 -0.1006
 4110TIP3    H112759  -0.058   2.915   1.999  0.6678  0.5256  0.5307
 4110TIP3    H212760   0.072   2.887   2.072  0.5587 -0.7191  0.2550
 4111TIP3   OH212761   1.215   4.349   3.522 -0.2293 -0.7588  0.2007
 4111TIP3    H112762   1.153   4.375   3.591 -0.0181 -0.6139  0.3368
 4111TIP3    H212763   1.295   4.399   3.541 -0.8365  0.8431 -1.3537
 4112TIP3   OH212764   5.951   4.467   0.654 -0.7277 -0.8184  0.2941
 4112TIP3    H112765   5.913   4.521   0.724 -0.9517 -0.2272 -0.2739
 4112TIP3    H212766   5.926   4.377   0.677 -0.1627 -0.7157  1.3763
 4113TIP3   OH212767   4.968   3.793   4.030  0.5692 -0.2528 -0.0322
 4113TIP3    H112768   4.885   3.757   4.058  0.3175  0.3983  0.0561
 4113TIP3    H212769   5.031   3.722   4.042 -0.0309 -0.8443 -0.4062
 4114TIP3   OH212770   2.453   0.317   1.219 -0.4545  0.9810  0.1834
 4114TIP3    H112771   2.390   0.366   1.165 -0.1686  1.4667  0.2821
 4114TIP3    H212772   2.535   0.365   1.209 -0.2060  0.6028  0.4052
 4115TIP3   OH212773   0.848   4.669   2.460 -0.5119 -0.4231  0.2332
 4115TIP3    H112774   0.780   4.604   2.445 -2.1475  1.6945 -1.8325
 4115TIP3    H212775   0.805   4.739   2.510  0.4798  0.2995  0.0992
 4116TIP3   OH212776   4.977   0.044   5.056 -0.2847 -0.6927 -0.4310
 4116TIP3    H112777   5.041  -0.019   5.024  1.4310  0.8784 -0.1837
 4116TIP3    H212778   4.994   0.124   5.006 -0.1916  0.5805  1.5610
 4117TIP3   OH212779   4.936   5.562   5.488  0.2391 -0.1036  0.0461
 4117TIP3    H112780   5.003   5.509   5.533 -1.6947 -1.5069  1.3779
 4117TIP3    H212781   4.868   5.499   5.464 -1.3593  1.5419  0.1453
 4118TIP3   OH212782   5.126   5.937   3.839 -0.4008 -0.1958 -0.5016
 4118TIP3    H112783   5.076   5.859   3.815 -1.4516  0.5814 -0.8914
 4118TIP3    H212784   5.060   5.997   3.874  0.2465  0.8620 -1.0692
 4119TIP3   OH212785   5.940   0.747   1.205 -0.1043 -0.3779 -0.1419
 4119TIP3    H112786   6.029   0.715   1.223  0.4941  0.6311 -1.2115
 4119TIP3    H212787   5.905   0.685   1.142  0.5169  0.2257 -1.0954
 4120TIP3   OH212788   5.653   1.566   4.283  0.0825 -0.9158  0.3366
 4120TIP3    H112789   5.717   1.627   4.246  0.5179 -1.0027  0.9386
 4120TIP3    H212790   5.574   1.617   4.292  0.2178 -0.6595  0.0898
 4121TIP3   OH212791   5.227   2.479   0.784 -0.1947  0.2802  0.4813
 4121TIP3    H112792   5.285   2.502   0.856  0.4665 -0.4213  0.1831
 4121TIP3    H212793   5.142   2.465   0.825  0.6963 -2.5279  1.5238
 4122TIP3   OH212794   0.934   0.507   6.056 -0.4441 -0.1933 -0.3779
 4122TIP3    H112795   0.904   0.417   6.068 -1.4886  0.2644  0.5458
 4122TIP3    H212796   1.024   0.507   6.086 -0.7111 -0.7418  0.4464
 4123TIP3   OH212797   0.405   2.685   5.983 -0.0427  0.1949 -0.1873
 4123TIP3    H112798   0.417   2.710   6.075 -2.2854 -2.4309  0.9150
 4123TIP3    H212799   0.310   2.668   5.976  0.3735 -1.3699 -2.4842
 4124TIP3   OH212800   5.201   4.434   3.974 -0.0674  0.0306  0.3907
 4124TIP3    H112801   5.228   4.439   3.882  0.5726 -0.0451  0.5739
 4124TIP3    H212802   5.107   4.450   3.972 -0.0860 -0.1448 -0.3000
 4125TIP3   OH212803   0.285   4.336   2.992  0.3847  0.0172 -0.3135
 4125TIP3    H112804   0.251   4.423   2.972  0.2989 -0.1477 -0.8982
 4125TIP3    H212805   0.353   4.321   2.926 -1.8162 -1.6675 -2.3070
 4126TIP3   OH212806   1.619   4.325   4.443  0.8531  0.0365  0.0807
 4126TIP3    H112807   1.526   4.320   4.465  0.3627  0.9447 -1.7494
 4126TIP3    H212808   1.642   4.417   4.451  1.2141  0.0478 -1.0094
 4127TIP3   OH212809   6.017   2.218   4.976 -1.0311  0.7053 -0.2197
 4127TIP3    H112810   6.022   2.259   4.889 -0.2285 -0.7106 -0.8758
 4127TIP3    H212811   6.100   2.242   5.018 -0.5207 -0.3076 -0.6396
 4128TIP3   OH212812   5.972   0.517   5.470  0.1412 -0.2052 -0.1508
 4128TIP3    H112813   5.946   0.567   5.548  0.1521  0.8136 -0.7878
 4128TIP3    H212814   5.938   0.569   5.397  0.1939 -1.1213 -0.8219
 4129TIP3   OH212815   6.019   5.112   4.528 -0.3440 -0.0554 -0.4155
 4129TIP3    H112816   6.024   5.047   4.458  0.4994 -0.7979  0.3135
 4129TIP3    H212817   5.981   5.065   4.602  0.0808  0.3312  0.0580
 4130TIP3   OH212818   0.576   5.652   3.934  0.0308  0.2539  0.1214
 4130TIP3    H112819   0.662   5.621   3.964 -0.1317 -2.2130 -1.7586
 4130TIP3    H212820   0.522   5.573   3.929 -2.4680  1.8046  1.5439
 4131TIP3   OH212821   1.476   4.729   2.097  0.4204  0.2319  0.2912
 4131TIP3    H112822   1.414   4.658   2.078 -0.0533  0.7867 -0.2487
 4131TIP3    H212823   1.420   4.805   2.113  0.9959  1.0207 -1.3662
 4132TIP3   OH212824   5.367   2.607   1.552  0.0163  0.7473 -0.3005
 4132TIP3    H112825   5.282   2.584   1.514  0.4053 -0.1881 -0.6166
 4132TIP3    H212826   5.431   2.577   1.488  0.6222  0.4949  0.4126
 4133TIP3   OH212827   2.781   5.276   2.137  0.5126 -0.5420 -0.3168
 4133TIP3    H112828   2.802   5.230   2.218  2.1476 -1.4064 -1.2147
 4133TIP3    H212829   2.765   5.207   2.073 -0.4194  0.1389 -0.8423
 4134TIP3   OH212830   4.540   4.600   2.511  0.3694  0.2252 -0.6565
 4134TIP3    H112831   4.533   4.546   2.433 -0.7718 -0.8735  0.1733
 4134TIP3    H212832   4.561   4.538   2.581 -1.0314  0.8152  0.3207
 4135TIP3   OH212833   4.536   4.543   3.487  0.0205 -0.0385 -0.1458
 4135TIP3    H112834   4.524   4.521   3.580  0.8367  2.2458  0.5283
 4135TIP3    H212835   4.578   4.465   3.450 -0.0017 -0.8586  1.4699
 4136TIP3   OH212836   0.169   2.928   3.252  0.3195 -0.7227  0.6236
 4136TIP3    H112837   0.098   2.865   3.248  0.6124 -1.1752  2.2516
 4136TIP3    H212838   0.182   2.955   3.161 -1.0778 -1.5703  0.1554
 4137TIP3   OH212839   5.071   0.631   5.988  0.2387 -0.1452 -0.0471
 4137TIP3    H112840   4.982   0.635   5.953  0.6228 -0.1771 -1.0447
 4137TIP3    H212841   5.084   0.538   6.008  0.1727 -0.1917 -0.2211
 4138TIP3   OH212842   1.254   4.837   4.152 -0.0223  0.6494  0.6566
 4138TIP3    H112843   1.175   4.882   4.122 -0.4161  0.4091  1.3264
 4138TIP3    H212844   1.323   4.903   4.147 -0.5576  1.2825  1.4662
 4139TIP3   OH212845   3.379   0.315   1.491 -0.0134  0.2095  0.0597
 4139TIP3    H112846   3.301   0.289   1.443  0.9405  0.6444 -1.7682
 4139TIP3    H212847   3.377   0.411   1.489  1.7577  0.2198 -1.9877
 4140TIP3   OH212848   6.044   3.815   3.533  0.6352  0.0804  0.1670
 4140TIP3    H112849   6.018   3.723   3.531 -1.5826  0.6984 -2.8405
 4140TIP3    H212850   6.119   3.820   3.474 -0.2036  0.4338 -0.8894
 4141TIP3   OH212851   1.561   4.467   2.601 -0.4533 -0.0514  0.0937
 4141TIP3    H112852   1.515   4.521   2.537 -0.0720  0.2674  0.0823
 4141TIP3    H212853   1.492   4.432   2.657 -0.8570 -0.9570 -0.9565
 4142TIP3   OH212854   0.605   1.133   0.616 -0.1788 -0.5329 -0.2262
 4142TIP3    H112855   0.531   1.184   0.581 -0.0384 -0.6853 -0.7477
 4142TIP3    H212856   0.630   1.179   0.696 -0.9089 -0.5376  0.0152
 4143TIP3   OH212857   2.830   5.377   1.637  0.1300  0.4108  0.0603
 4143TIP3    H112858   2.795   5.288   1.630 -0.6450  0.8421 -1.9649
 4143TIP3    H212859   2.911   5.375   1.587 -1.3437  1.5314 -2.4619
 4144TIP3   OH212860   0.386   0.745   0.906  0.8383 -0.8872 -0.0664
 4144TIP3    H112861   0.424   0.698   0.832 -1.1375 -1.1477 -0.9442
 4144TIP3    H212862   0.458   0.756   0.968  2.2572 -1.5767 -1.5831
 4145TIP3   OH212863   1.064   5.022   1.612 -0.5802  0.2428 -0.1001
 4145TIP3    H112864   1.129   4.976   1.559  1.1276  2.7856 -0.3184
 4145TIP3    H212865   1.112   5.052   1.689 -2.0854  0.0636  0.9358
 4146TIP3   OH212866   1.150   5.761   3.468  0.1624 -0.6031  0.1409
 4146TIP3    H112867   1.115   5.850   3.464  0.7460 -0.4284 -2.3752
 4146TIP3    H212868   1.180   5.744   3.378  3.2456 -2.0483  1.3873
 4147TIP3   OH212869   3.292   0.645   0.068 -0.3622 -0.1886  0.3520
 4147TIP3    H112870   3.227   0.651  -0.001 -0.6076 -2.4004  0.3319
 4147TIP3    H212871   3.241   0.646   0.149 -0.2364  0.3078  0.4278
 4148TIP3   OH212872   1.097   1.285   1.367  0.0161  0.3397  0.0650
 4148TIP3    H112873   1.088   1.207   1.313 -0.4405  0.2428  0.2755
 4148TIP3    H212874   1.024   1.341   1.341  1.6545  1.6825 -1.7026
 4149TIP3   OH212875   0.319   4.971   2.980 -0.1561  0.4492  0.3256
 4149TIP3    H112876   0.398   5.008   3.019 -1.1572  1.3977  1.5275
 4149TIP3    H212877   0.255   4.973   3.051 -0.7796 -1.8998 -0.1260
 4150TIP3   OH212878   1.950   5.797   3.349  0.0150  0.2754 -0.2921
 4150TIP3    H112879   1.926   5.810   3.440 -3.2017  0.2149 -1.0609
 4150TIP3    H212880   2.026   5.739   3.352  0.8098  1.3939  2.3719
 4151TIP3   OH212881   2.110   4.680   1.786 -0.2315 -0.4653  0.2218
 4151TIP3    H112882   2.020   4.645   1.783 -0.0053 -1.0255 -0.1487
 4151TIP3    H212883   2.151   4.631   1.858 -0.7246  1.0275  1.5551
 4152TIP3   OH212884   1.302   4.018   2.530  0.2268  0.0884 -0.2300
 4152TIP3    H112885   1.357   4.096   2.527  0.6648 -0.1261  1.4107
 4152TIP3    H212886   1.226   4.045   2.581 -0.2768 -0.1737 -0.8370
 4153TIP3   OH212887   1.338   5.583   4.479  0.7633 -0.0662  0.5015
 4153TIP3    H112888   1.412   5.537   4.519  0.3615 -0.4135  0.8380
 4153TIP3    H212889   1.359   5.676   4.491  0.9513 -0.1661  0.9496
 4154TIP3   OH212890   1.920   3.843   4.457  0.4303  0.5913  0.2114
 4154TIP3    H112891   1.986   3.876   4.397  0.4601  0.7642  0.3405
 4154TIP3    H212892   1.898   3.917   4.513 -0.9681  0.9556 -0.8008
 4155TIP3   OH212893   0.432   0.604   5.956 -0.0138  0.1234  0.5358
 4155TIP3    H112894   0.346   0.642   5.939 -0.1546 -0.7713 -0.7536
 4155TIP3    H212895   0.493   0.678   5.948 -0.5990  0.6529  0.9386
 4156TIP3   OH212896   2.326   4.918   2.155  0.5122 -0.3011  0.0501
 4156TIP3    H112897   2.262   4.986   2.179 -0.4779 -1.5262  0.9771
 4156TIP3    H212898   2.316   4.908   2.061  0.1570  0.3517  0.0157
 4157TIP3   OH212899   1.177   0.215   0.941 -0.0058  0.7173  0.1834
 4157TIP3    H112900   1.128   0.158   0.881 -0.7872 -0.3843  1.8139
 4157TIP3    H212901   1.152   0.304   0.916 -0.1078  0.2958 -1.2784
 4158TIP3   OH212902   4.831   0.225   3.779  0.1543  0.0460 -0.1246
 4158TIP3    H112903   4.755   0.226   3.836  0.9119 -0.4718  0.9084
 4158TIP3    H212904   4.896   0.280   3.823  1.7600 -2.6152  0.9594
 4159TIP3   OH212905   6.062   5.333   2.684 -0.3056 -0.1182  0.3998
 4159TIP3    H112906   6.057   5.426   2.660 -0.2887 -0.2990 -0.2993
 4159TIP3    H212907   6.110   5.333   2.767  0.4092  0.4388 -0.0048
 4160TIP3   OH212908   2.601   3.872   2.589  0.6952 -0.5618  0.6340
 4160TIP3    H112909   2.545   3.807   2.631  1.0656 -0.8415  0.7075
 4160TIP3    H212910   2.665   3.896   2.657  0.6461 -0.2294  0.5622
 4161TIP3   OH212911   1.888   3.384   1.830  0.0545 -0.0363 -0.6726
 4161TIP3    H112912   1.842   3.334   1.762 -1.7151  2.0225 -1.0664
 4161TIP3    H212913   1.821   3.400   1.897  0.2106  2.8266 -1.1343
 4162TIP3   OH212914   1.091   3.682   4.728  0.0366 -0.1783  0.0406
 4162TIP3    H112915   1.127   3.766   4.700  0.6529  0.0832  1.5555
 4162TIP3    H212916   1.131   3.618   4.669 -0.3289  0.5613 -1.0271
 4163TIP3   OH212917   5.271   0.944   4.893  0.2325 -0.9389  0.2560
 4163TIP3    H112918   5.331   0.886   4.846  1.1684 -0.3406  0.7102
 4163TIP3    H212919   5.217   0.885   4.945 -1.3595 -1.6944 -2.1355
 4164TIP3   OH212920   1.241   5.114   4.152 -0.6586  0.1481  0.0148
 4164TIP3    H112921   1.183   5.144   4.222 -1.1316 -0.3998 -0.1417
 4164TIP3    H212922   1.329   5.137   4.182 -0.7446 -1.1962  1.3607
 4165TIP3   OH212923   1.134   5.648   3.847 -0.1133  0.3542  0.3340
 4165TIP3    H112924   1.125   5.692   3.932 -0.1681  0.0935  0.4623
 4165TIP3    H212925   1.046   5.619   3.826 -0.2974  1.3980 -0.3389
 4166TIP3   OH212926   1.689   5.536   3.927 -0.2314 -0.2609  0.3887
 4166TIP3    H112927   1.687   5.446   3.894  1.0549  0.7223 -2.5251
 4166TIP3    H212928   1.603   5.572   3.906 -0.4138 -0.5134  0.7011
 4167TIP3   OH212929   2.420   3.604   1.911 -0.2481  0.5508 -0.0236
 4167TIP3    H112930   2.355   3.650   1.964  1.6502  4.2774 -0.7160
 4167TIP3    H212931   2.412   3.643   1.824  0.1374 -1.8719 -1.1885
 4168TIP3   OH212932   3.440   4.069   2.705  0.4849 -0.2099 -0.6499
 4168TIP3    H112933   3.428   4.137   2.771  1.2090  1.6226 -2.3685
 4168TIP3    H212934   3.454   3.989   2.756  0.6291  1.0911  1.4198
 4169TIP3   OH212935   5.019   5.818   2.094  0.1140  0.4155 -0.1880
 4169TIP3    H112936   5.113   5.804   2.084 -0.1324 -0.4607 -1.3953
 4169TIP3    H212937   4.980   5.776   2.017 -1.4259 -1.1408  1.3737
 4170TIP3   OH212938   1.422   0.087   0.111 -0.2915 -0.4288  0.3744
 4170TIP3    H112939   1.470   0.019   0.157 -0.9709  0.2071  2.0618
 4170TIP3    H212940   1.387   0.043   0.034  2.1645 -1.1234 -0.3971
 4171TIP3   OH212941   3.522   4.402   2.795 -0.0124  0.3916 -1.1788
 4171TIP3    H112942   3.517   4.497   2.804  0.2436  0.4057 -1.1924
 4171TIP3    H212943   3.536   4.387   2.701  2.3042  0.4341 -0.8703
 4172TIP3   OH212944   5.290   5.910   1.306  0.2861 -0.4831  0.1283
 4172TIP3    H112945   5.212   5.915   1.249  1.6195  1.1271 -1.6230
 4172TIP3    H212946   5.361   5.884   1.247  1.6662  0.9969  1.1119
 4173TIP3   OH212947   0.235   0.622   0.399 -0.2045  0.0965 -0.1666
 4173TIP3    H112948   0.262   0.530   0.399  0.2132  0.2163  0.7220
 4173TIP3    H212949   0.213   0.640   0.308  2.7060  0.0034 -0.9154
 4174TIP3   OH212950   2.952   5.541   5.549 -0.3051  0.3409  0.5205
 4174TIP3    H112951   2.984   5.630   5.530  0.4604 -0.4052 -1.8480
 4174TIP3    H212952   2.992   5.519   5.633  1.6053  1.2337 -0.1299
 4175TIP3   OH212953   1.231   1.314   0.106 -0.0349  0.8453  0.8046
 4175TIP3    H112954   1.265   1.227   0.127  2.5002  1.8004  0.9052
 4175TIP3    H212955   1.223   1.358   0.191 -0.3725  1.0340  0.6778
 4176TIP3   OH212956   1.581   0.110   2.986  0.3336 -0.1760  0.1983
 4176TIP3    H112957   1.615   0.148   2.906 -1.5655  2.6076  0.6453
 4176TIP3    H212958   1.608   0.170   3.056 -2.9678  0.6436  0.8818
 4177TIP3   OH212959   1.894   3.988   2.190  0.1076  0.0409  0.3020
 4177TIP3    H112960   1.943   3.912   2.160 -1.7654 -0.9242 -0.4189
 4177TIP3    H212961   1.884   4.042   2.112 -0.0624  0.1849  0.4248
 4178TIP3   OH212962   2.232   0.415   0.099 -0.2718 -0.7645 -0.2383
 4178TIP3    H112963   2.139   0.435   0.104 -0.1939 -0.4664  0.1019
 4178TIP3    H212964   2.252   0.414   0.006 -0.3708  0.3397 -0.2812
 4179TIP3   OH212965   0.444   4.581   2.000 -0.2995  0.2991  0.2128
 4179TIP3    H112966   0.536   4.605   2.004 -0.7766  2.0281  2.8090
 4179TIP3    H212967   0.425   4.571   1.907  2.1944  1.1083 -0.4220
 4180TIP3   OH212968   0.006   0.270   5.474  0.0004 -0.1457 -0.3840
 4180TIP3    H112969   0.022   0.262   5.380 -0.1195 -1.4958 -0.3125
 4180TIP3    H212970  -0.025   0.359   5.487  2.3308  0.8108 -1.2762
 4181TIP3   OH212971   1.890   4.234   2.297 -0.2224 -0.3857  0.4995
 4181TIP3    H112972   1.898   4.141   2.273 -1.1400 -0.2362 -0.4195
 4181TIP3    H212973   1.798   4.245   2.318 -0.2986  0.5425 -0.3267
 4182TIP3   OH212974   3.759   4.685   2.840  0.0250  0.2354  0.0261
 4182TIP3    H112975   3.665   4.700   2.833 -0.0859  0.1054  1.1507
 4182TIP3    H212976   3.774   4.667   2.933  1.5748  3.2660  0.4453
 4183TIP3   OH212977   5.948   5.503   3.766  0.1460 -0.3697  0.1369
 4183TIP3    H112978   6.025   5.451   3.789  0.4020 -0.7388 -1.4893
 4183TIP3    H212979   5.874   5.457   3.806  0.6189 -0.7296  0.5994
 4184TIP3   OH212980   1.154   4.393   2.853 -0.7775  0.1979 -0.0702
 4184TIP3    H112981   1.177   4.441   2.932 -0.1110  0.3106 -0.3362
 4184TIP3    H212982   1.126   4.460   2.791 -3.4082 -0.0516  0.7782
 4185TIP3   OH212983   0.348   0.294   3.674  0.2761  0.6892 -0.2294
 4185TIP3    H112984   0.272   0.281   3.730  0.3302  3.5135  0.5768
 4185TIP3    H212985   0.414   0.333   3.732  1.3447  0.9558 -1.5963
 4186TIP3   OH212986   5.285   5.469   2.435  0.5269 -0.1073  0.2128
 4186TIP3    H112987   5.280   5.402   2.366 -2.6433  0.0403  0.2259
 4186TIP3    H212988   5.340   5.538   2.398  0.6156 -0.9847 -1.3300
 4187TIP3   OH212989   0.781   4.919   2.674  0.8852  0.0473  0.6897
 4187TIP3    H112990   0.759   5.012   2.669 -0.3062 -0.2229  0.9824
 4187TIP3    H212991   0.770   4.896   2.766  1.2882 -0.3598  0.6386
 4188TIP3   OH212992   0.045   5.744   2.181  0.6316  0.0570 -0.1814
 4188TIP3    H112993   0.039   5.671   2.119 -1.2246 -0.7962  0.9925
 4188TIP3    H212994  -0.025   5.729   2.244  0.7208  2.4303  0.5397
 4189TIP3   OH212995   3.911   5.933   1.927 -0.2543 -0.7342 -0.6158
 4189TIP3    H112996   3.954   5.847   1.928  0.9571 -0.2048 -3.6765
 4189TIP3    H212997   3.877   5.942   1.838  1.8695  3.0429 -1.1311
 4190TIP3   OH212998   2.844   1.258   2.125  0.6217  0.2799 -0.1593
 4190TIP3    H112999   2.815   1.347   2.148  0.1047 -0.0415  0.4387
 4190TIP3    H213000   2.940   1.262   2.133  0.7442  1.2462 -1.8019
 4191TIP3   OH213001   4.329   5.939   1.862  0.5538 -0.2886 -0.4571
 4191TIP3    H113002   4.261   5.943   1.795 -0.1664  0.0089  0.2792
 4191TIP3    H213003   4.377   5.859   1.842 -1.3756 -1.6986  0.2852
 4192TIP3   OH213004   2.554   4.949   2.429 -0.0604 -0.2540  0.1321
 4192TIP3    H113005   2.605   5.004   2.489  0.8159 -0.7338 -0.1548
 4192TIP3    H213006   2.492   5.009   2.387  1.3981  0.6735 -0.7497
 4193TIP3   OH213007   2.790   0.947   4.214  0.4419 -0.6863  0.3131
 4193TIP3    H113008   2.855   0.963   4.282  0.3752 -1.7372  0.6438
 4193TIP3    H213009   2.791   0.851   4.203 -0.7285 -0.6685  0.0181
 4194TIP3   OH213010   2.981   0.156   2.971  0.1765  0.0387  0.0806
 4194TIP3    H113011   3.002   0.099   3.045 -0.1919 -2.5939 -1.7386
 4194TIP3    H213012   2.889   0.138   2.953 -0.0028  1.4111 -0.3787
 4195TIP3   OH213013   5.691   5.542   3.026 -0.2862  0.2455 -0.4549
 4195TIP3    H113014   5.785   5.528   3.018 -0.3482 -0.2745 -0.2525
 4195TIP3    H213015   5.683   5.634   3.053  0.1819  0.1376  0.0559
 4196TIP3   OH213016   4.424   4.803   3.216  0.1911 -0.1711 -0.4361
 4196TIP3    H113017   4.352   4.758   3.171  0.6032 -2.3864  1.0185
 4196TIP3    H213018   4.457   4.866   3.152 -1.5476 -0.7472 -1.9380
 4197TIP3   OH213019   1.661   1.068   2.911 -0.1445 -0.2675 -0.1178
 4197TIP3    H113020   1.651   1.005   2.982 -0.4911  1.0841  1.0447
 4197TIP3    H213021   1.574   1.107   2.900  0.1638  0.3170 -0.5485
 4198TIP3   OH213022   1.690   3.866   2.359 -0.0156  0.1975 -0.0967
 4198TIP3    H113023   1.732   3.801   2.416  0.5071  1.0280  0.4830
 4198TIP3    H213024   1.761   3.924   2.332 -0.2525 -0.2048 -1.6452
 4199TIP3   OH213025   2.067   3.582   1.730  0.8048 -0.1329 -0.2989
 4199TIP3    H113026   2.147   3.612   1.773  1.9717 -1.4060 -1.5020
 4199TIP3    H213027   2.024   3.526   1.795  0.5841  1.0175  0.5601
 4200TIP3   OH213028   2.839   5.871   4.412 -0.1434 -0.1024 -0.6643
 4200TIP3    H113029   2.826   5.825   4.495 -0.8379  1.7820  0.3181
 4200TIP3    H213030   2.774   5.835   4.353 -2.1484  1.1214  0.7384
 4201TIP3   OH213031   1.411   3.880   0.246  0.3057  0.1667 -0.4288
 4201TIP3    H113032   1.318   3.901   0.250  0.6567  1.5340  0.7499
 4201TIP3    H213033   1.423   3.844   0.158 -1.5232 -1.0185 -0.2339
 4202TIP3   OH213034   3.750   6.044   4.391  0.1834  0.0700  0.3389
 4202TIP3    H113035   3.783   5.955   4.376 -1.8869 -1.2104  3.0351
 4202TIP3    H213036   3.696   6.063   4.315  0.2367 -1.1849 -0.0230
 4203TIP3   OH213037   1.008   5.421   2.105 -0.2504  0.3067  0.4591
 4203TIP3    H113038   0.966   5.489   2.157 -1.4547  0.8224 -1.1652
 4203TIP3    H213039   0.937   5.382   2.054  0.7092 -1.0133  0.0910
 4204TIP3   OH213040   0.569   4.221   4.992  0.2766  0.1263  0.0124
 4204TIP3    H113041   0.517   4.222   4.912 -0.4963  1.0867  0.5221
 4204TIP3    H213042   0.525   4.158   5.049 -0.0233  0.5554  0.2504
 4205TIP3   OH213043   2.664   4.680   2.396 -0.4373 -0.3593 -0.5274
 4205TIP3    H113044   2.625   4.767   2.395  1.6025  0.6058  0.9191
 4205TIP3    H213045   2.609   4.630   2.457 -1.2517  0.0694 -0.9042
 4206TIP3   OH213046   2.954   2.879   2.474  0.4376  0.4642  0.4676
 4206TIP3    H113047   2.944   2.940   2.547  0.9345  0.7486  0.3002
 4206TIP3    H213048   2.879   2.820   2.482 -0.6140  1.7196  0.0229
 4207TIP3   OH213049   2.814   5.949   0.895  0.4269  0.4490 -0.3564
 4207TIP3    H113050   2.827   5.901   0.977 -1.4806  0.1192 -0.2291
 4207TIP3    H213051   2.719   5.950   0.883  0.7701 -1.5655 -3.7577
 4208TIP3   OH213052   1.936   0.739   1.369 -0.7649  0.7130 -0.6213
 4208TIP3    H113053   1.907   0.822   1.331 -0.0712  0.3167 -2.0496
 4208TIP3    H213054   2.030   0.736   1.350 -0.9786 -0.8792 -1.4781
 4209TIP3   OH213055   3.875   3.872   4.288 -0.0164  0.2945  0.4321
 4209TIP3    H113056   3.869   3.856   4.194  0.5746  2.8965 -0.0871
 4209TIP3    H213057   3.966   3.849   4.310  0.0833  0.4776  0.2113
 4210TIP3   OH213058   1.989   3.167   1.058 -0.0239 -0.0629 -0.2440
 4210TIP3    H113059   2.056   3.164   0.989  0.0552  0.7046 -0.2036
 4210TIP3    H213060   2.036   3.196   1.136 -0.5268  1.0674 -0.3590
 4211TIP3   OH213061   3.484   1.480   3.320 -0.0387  0.1094 -0.0775
 4211TIP3    H113062   3.556   1.539   3.344  1.5347 -1.9621  0.4444
 4211TIP3    H213063   3.486   1.476   3.225  1.6224 -1.1786 -0.0212
 4212TIP3   OH213064   2.801   4.418   3.451 -0.2577  0.3709  0.1763
 4212TIP3    H113065   2.769   4.328   3.453  1.0972 -0.1082  1.1601
 4212TIP3    H213066   2.763   4.455   3.371 -0.1960 -1.3017 -0.6619
 4213TIP3   OH213067   1.056   1.327   5.705 -0.3346 -0.5307  0.5117
 4213TIP3    H113068   1.088   1.311   5.794  0.3807 -0.0353  0.3422
 4213TIP3    H213069   1.131   1.309   5.649 -0.1914  1.1247  0.1496
 4214TIP3   OH213070   2.119   5.199   4.562 -0.7810  0.0344  0.0372
 4214TIP3    H113071   2.029   5.173   4.542  0.0207 -2.3375 -0.6425
 4214TIP3    H213072   2.173   5.125   4.533  1.1523  0.0875  3.2381
 4215TIP3   OH213073   3.982   5.024   2.243 -0.0979  0.1427 -0.2392
 4215TIP3    H113074   3.994   4.959   2.174 -0.6144 -1.6052  1.2742
 4215TIP3    H213075   4.048   5.002   2.309 -0.2880  1.1544  0.3042
 4216TIP3   OH213076   3.019   1.488   4.473  0.3663 -0.1428  0.5227
 4216TIP3    H113077   3.010   1.418   4.537 -1.9307 -0.0733  0.3310
 4216TIP3    H213078   2.951   1.470   4.408 -0.0285  2.0374  0.2887
 4217TIP3   OH213079   1.605   3.467   5.944 -0.2696  0.4134 -0.1805
 4217TIP3    H113080   1.510   3.458   5.952 -0.4846 -0.7755 -3.2012
 4217TIP3    H213081   1.641   3.408   6.010 -1.6200  0.5244  0.6700
 4218TIP3   OH213082   4.770   4.798   0.790 -0.0851 -0.0335 -0.2094
 4218TIP3    H113083   4.748   4.840   0.707  0.1675 -1.0622 -0.8072
 4218TIP3    H213084   4.866   4.800   0.792  0.0401 -2.5542 -1.3124
 4219TIP3   OH213085   2.948   5.224   3.551 -0.3009 -0.1792  0.3116
 4219TIP3    H113086   2.975   5.307   3.513 -0.6318  0.1410  0.7792
 4219TIP3    H213087   2.973   5.229   3.643 -2.3756  0.3326  0.8717
 4220TIP3   OH213088   2.744   0.057   1.188  0.0692 -0.4153 -0.1319
 4220TIP3    H113089   2.649   0.048   1.180  0.2233 -3.5009  0.9146
 4220TIP3    H213090   2.779  -0.021   1.145  2.1823  0.8768 -0.8454
 4221TIP3   OH213091   3.426   4.472   0.860 -0.4459  0.6835  0.1127
 4221TIP3    H113092   3.386   4.396   0.819 -0.2809  1.1480 -0.9159
 4221TIP3    H213093   3.510   4.441   0.893  0.1761  0.7368 -1.4303
 4222TIP3   OH213094   0.520   0.439   3.131  0.1196 -0.4403  0.1930
 4222TIP3    H113095   0.545   0.388   3.207 -0.1224  0.5335  0.9400
 4222TIP3    H213096   0.588   0.421   3.066 -0.0475 -1.8052  0.3905
 4223TIP3   OH213097   1.811   4.569   1.776  0.4971  0.2570 -0.2841
 4223TIP3    H113098   1.785   4.635   1.841  1.7436 -0.2770  0.7853
 4223TIP3    H213099   1.816   4.488   1.826  2.4105  0.0114 -0.8521
 4224TIP3   OH213100   0.947   6.042   1.195 -0.0496 -0.1309  0.2502
 4224TIP3    H113101   0.988   6.002   1.118 -0.6088 -1.0284  0.4044
 4224TIP3    H213102   1.016   6.045   1.261  0.1949 -0.1788 -0.0046
 4225TIP3   OH213103   4.842   1.102   2.085 -0.0284 -0.7788 -0.2656
 4225TIP3    H113104   4.893   1.136   2.159 -0.3842  0.6237 -0.6599
 4225TIP3    H213105   4.895   1.123   2.008 -1.1525  0.5972 -0.6701
 4226TIP3   OH213106   5.079   2.100   3.995  0.1402 -0.0864 -0.2561
 4226TIP3    H113107   5.025   2.025   3.971  0.4604 -0.0866 -0.9988
 4226TIP3    H213108   5.024   2.152   4.054 -0.3746 -0.4867 -0.3812
 4227TIP3   OH213109   5.036   0.325   3.268 -0.3855 -0.0382 -0.1909
 4227TIP3    H113110   5.006   0.308   3.357  0.7283 -0.1513  0.1755
 4227TIP3    H213111   5.123   0.286   3.264  0.0272  0.9174 -0.9878
 4228TIP3   OH213112   2.835   1.281   0.288  0.3540 -0.2755  0.4762
 4228TIP3    H113113   2.823   1.229   0.367  0.3252 -0.4654  0.3456
 4228TIP3    H213114   2.823   1.371   0.317 -0.6110 -0.4060  0.4970
 4229TIP3   OH213115   1.834   4.290   1.020  0.1287  0.1002  0.0345
 4229TIP3    H113116   1.855   4.222   0.956  1.4725  2.3358 -1.9969
 4229TIP3    H213117   1.809   4.366   0.966  1.0564  1.9623  2.1555
 4230TIP3   OH213118   2.723   4.931   0.182  0.1954  0.0421  0.9069
 4230TIP3    H113119   2.690   4.882   0.257 -2.6622  0.2213 -0.1517
 4230TIP3    H213120   2.749   5.015   0.219  0.9831 -0.6810  2.0453
 4231TIP3   OH213121   1.417   5.780   0.507  0.6931  0.2076  0.2254
 4231TIP3    H113122   1.422   5.841   0.581  1.0229  1.1401 -0.5648
 4231TIP3    H213123   1.502   5.786   0.464  1.6243 -2.6096  1.5311
 4232TIP3   OH213124   2.997   6.052   4.285 -0.0782 -0.4911  0.0423
 4232TIP3    H113125   2.966   5.976   4.334 -1.4158  0.8072  1.2557
 4232TIP3    H213126   2.962   6.127   4.332 -0.7843  0.8361 -2.5111
 4233TIP3   OH213127   2.924   4.768   2.414 -0.3746  0.0395 -0.0430
 4233TIP3    H113128   2.949   4.678   2.391 -0.9331 -0.3906  0.9790
 4233TIP3    H213129   2.828   4.768   2.407 -0.2993  0.9082 -1.2424
 4234TIP3   OH213130   4.742   5.228   5.099 -0.0659 -0.6187  0.2990
 4234TIP3    H113131   4.662   5.186   5.067  1.1088 -1.7646 -1.2059
 4234TIP3    H213132   4.711   5.307   5.144 -1.9852 -0.6444 -0.9108
 4235TIP3   OH213133   3.405   4.929   1.075 -0.0275 -0.1990 -0.1179
 4235TIP3    H113134   3.382   4.842   1.108  0.0406  0.3283  1.3616
 4235TIP3    H213135   3.498   4.940   1.097  0.3114 -0.2754 -1.4826
 4236TIP3   OH213136   2.691   0.782   0.896 -0.0273 -0.1942  0.3654
 4236TIP3    H113137   2.740   0.816   0.970  2.3253  0.1128 -1.3039
 4236TIP3    H213138   2.657   0.859   0.851 -1.8828 -0.3948  1.3671
 4237TIP3   OH213139   2.298   0.920   5.264  0.6926 -0.2412 -0.2179
 4237TIP3    H113140   2.232   0.856   5.292  0.1612 -0.0978 -1.1165
 4237TIP3    H213141   2.335   0.883   5.184  0.4502  0.5159 -0.6888
 4238TIP3   OH213142   4.854   5.503   2.633 -0.5533  0.5946  0.2807
 4238TIP3    H113143   4.823   5.528   2.546  2.0753 -0.8014 -1.1405
 4238TIP3    H213144   4.865   5.586   2.679  0.9628  1.6096 -1.8043
 4239TIP3   OH213145   3.203   4.474   2.158 -0.2222  0.7565  0.3166
 4239TIP3    H113146   3.245   4.560   2.166  0.0498  0.6251  0.2869
 4239TIP3    H213147   3.116   4.487   2.197  0.0355  0.8894  0.8542
 4240TIP3   OH213148   4.779   4.410   2.326 -0.2005 -0.3276  0.0472
 4240TIP3    H113149   4.793   4.353   2.250 -1.4126 -1.8402  0.9266
 4240TIP3    H213150   4.849   4.385   2.387 -0.6010 -0.7352  0.3435
 4241TIP3   OH213151   4.771   5.621   2.387  0.2537 -0.3963 -0.2598
 4241TIP3    H113152   4.865   5.612   2.377 -0.0287 -1.2486 -2.3620
 4241TIP3    H213153   4.748   5.697   2.332 -0.2636 -0.0447  0.4292
 4242TIP3   OH213154   0.993   1.546   2.971  0.5986  0.1550 -0.1077
 4242TIP3    H113155   1.012   1.591   3.054 -0.4726  1.8725 -0.7594
 4242TIP3    H213156   0.954   1.614   2.916 -0.7848 -1.5374 -1.2454
 4243TIP3   OH213157   1.541   4.932   0.803 -0.1611 -0.2742  0.0557
 4243TIP3    H113158   1.504   5.016   0.831 -0.1189  0.4563 -2.0360
 4243TIP3    H213159   1.601   4.954   0.732 -3.2612 -2.4299 -3.4381
 4244TIP3   OH213160   3.993   5.398   3.734 -0.2236 -0.0769 -0.1592
 4244TIP3    H113161   4.087   5.382   3.737 -0.1630  0.5866  2.7370
 4244TIP3    H213162   3.982   5.461   3.662  1.4101 -0.7717 -1.0610
 4245TIP3   OH213163   1.175   1.594   3.196  0.3616  0.1370  0.0760
 4245TIP3    H113164   1.248   1.655   3.209  1.1301 -0.7878  0.1230
 4245TIP3    H213165   1.177   1.537   3.272 -0.5581  0.2500  0.1855
 4246TIP3   OH213166   5.759   0.355   5.250 -0.0829 -0.0265 -0.1171
 4246TIP3    H113167   5.803   0.439   5.260  0.3154 -0.1739 -0.6584
 4246TIP3    H213168   5.733   0.331   5.339 -1.0207  1.1164 -0.0771
 4247TIP3   OH213169   1.041   1.961   1.671  0.3493 -0.3071  0.2164
 4247TIP3    H113170   1.068   2.021   1.602 -0.3995  0.0077  0.1887
 4247TIP3    H213171   0.990   2.015   1.732 -1.4297 -1.1605 -0.4764
 4248TIP3   OH213172   5.028   4.332   1.233 -0.0587  0.5424 -0.0504
 4248TIP3    H113173   4.963   4.363   1.171 -1.8849  0.3018  1.7180
 4248TIP3    H213174   5.067   4.411   1.270  1.2986  0.6930 -1.7088
 4249TIP3   OH213175   4.545   5.014   2.589 -0.3995  0.2482 -0.1106
 4249TIP3    H113176   4.481   5.067   2.637  0.0038 -0.3048  1.0509
 4249TIP3    H213177   4.587   4.961   2.656  0.3477 -0.3606 -1.0533
 4250TIP3   OH213178   4.894   4.496   0.991 -0.6136 -0.6705 -0.2765
 4250TIP3    H113179   4.875   4.569   0.931 -0.0229  0.5874  1.0428
 4250TIP3    H213180   4.839   4.513   1.067 -1.8549 -2.6324 -0.7159
 4251TIP3   OH213181   4.755   0.745   0.559 -0.3435  0.1212  0.1915
 4251TIP3    H113182   4.711   0.665   0.533 -1.0351  0.3139  0.7496
 4251TIP3    H213183   4.767   0.794   0.477  0.3818 -0.6945 -0.1922
 4252TIP3   OH213184   2.975   3.971   0.446 -0.1664  0.0290 -0.3973
 4252TIP3    H113185   2.906   3.929   0.396  0.0292 -1.2788  0.4215
 4252TIP3    H213186   3.056   3.946   0.402 -0.0585 -0.3495  0.0108
 4253TIP3   OH213187   6.077   0.243   3.994 -0.7516 -0.1058  0.0014
 4253TIP3    H113188   6.146   0.202   4.047 -0.4651  1.3204  0.7463
 4253TIP3    H213189   6.002   0.250   4.054 -0.7448  0.6173 -0.0830
 4254TIP3   OH213190   4.766   5.228   3.552 -0.6425 -0.6779  0.5243
 4254TIP3    H113191   4.753   5.315   3.590  0.5283  0.8208 -2.3654
 4254TIP3    H213192   4.826   5.184   3.613  0.8391  1.5144  0.7178
 4255TIP3   OH213193   2.165   5.556   0.951  0.2546 -0.4694  0.3454
 4255TIP3    H113194   2.235   5.533   0.890  0.4169 -0.6973  0.6198
 4255TIP3    H213195   2.114   5.475   0.961 -1.4936  0.3085 -1.7488
 4256TIP3   OH213196   3.729   5.277   3.742  0.8024  0.4211  0.4194
 4256TIP3    H113197   3.704   5.225   3.666  1.6269  0.2836  0.2316
 4256TIP3    H213198   3.822   5.296   3.728  0.6678  1.3873  0.8137
 4257TIP3   OH213199   3.511   5.625   4.419  0.0188 -0.1666 -0.3031
 4257TIP3    H113200   3.533   5.684   4.347  0.4264  0.9400  0.7116
 4257TIP3    H213201   3.594   5.606   4.461 -0.1053 -1.5422 -0.6791
 4258TIP3   OH213202   4.648   0.767   1.435 -0.2595  0.2905  0.0256
 4258TIP3    H113203   4.629   0.858   1.413 -0.0653  0.3044 -0.0814
 4258TIP3    H213204   4.743   0.763   1.445 -0.3844  0.3605  1.2374
 4259TIP3   OH213205   3.208   1.357   0.905  0.2649 -0.2967 -0.5146
 4259TIP3    H113206   3.278   1.380   0.843  0.3466 -0.4740 -0.4865
 4259TIP3    H213207   3.223   1.415   0.979 -0.2591  0.4152 -0.9615
 4260TIP3   OH213208   4.372   0.521   3.585 -0.1178 -0.2446  0.3541
 4260TIP3    H113209   4.401   0.526   3.676  0.5233  2.3248  0.0427
 4260TIP3    H213210   4.375   0.428   3.564 -0.4844 -0.9001  3.0200
 4261TIP3   OH213211   0.111   0.159   3.784  0.3514 -0.2637  0.2050
 4261TIP3    H113212   0.059   0.196   3.855 -3.2778  0.3502 -2.5860
 4261TIP3    H213213   0.090   0.065   3.786 -1.1854  0.0247 -1.0892
 4262TIP3   OH213214   4.858   5.759   2.788  0.1613 -0.2961 -0.0677
 4262TIP3    H113215   4.943   5.802   2.798  1.1902 -1.9348 -1.3732
 4262TIP3    H213216   4.827   5.744   2.877  2.1085 -1.3179  0.4662
 4263TIP3   OH213217   2.406   5.890   2.306  0.0832 -0.3507  0.4097
 4263TIP3    H113218   2.363   5.926   2.384 -1.2530 -0.1979 -0.3728
 4263TIP3    H213219   2.430   5.968   2.255  0.4394 -0.4647  0.4051
 4264TIP3   OH213220   4.923   3.827   2.534 -0.3566 -0.1474  0.2687
 4264TIP3    H113221   4.966   3.751   2.575  1.0876  0.6405  0.2561
 4264TIP3    H213222   4.964   3.835   2.448  0.0207  1.0785  0.5509
 4265TIP3   OH213223   4.311   0.290   4.146  0.0848 -0.0858  0.3021
 4265TIP3    H113224   4.244   0.298   4.214  0.0308 -0.8750  0.3501
 4265TIP3    H213225   4.320   0.378   4.110 -1.5495 -0.1288 -0.2463
 4266TIP3   OH213226   5.411   1.008   2.990 -0.1976 -0.2771 -0.5730
 4266TIP3    H113227   5.451   0.958   2.919 -0.3175  0.8161 -1.4274
 4266TIP3    H213228   5.480   1.066   3.022 -0.5441  0.2416 -0.7538
 4267TIP3   OH213229   4.443   4.778   3.830 -0.4343 -0.6779  0.3047
 4267TIP3    H113230   4.360   4.733   3.816 -2.3551  2.0119  2.5592
 4267TIP3    H213231   4.467   4.757   3.920 -0.4125  1.2300  0.7627
 4268TIP3   OH213232   4.699   0.353   2.348  0.1274  0.3690  0.3008
 4268TIP3    H113233   4.657   0.337   2.264 -0.5134  0.3033  0.6316
 4268TIP3    H213234   4.734   0.268   2.374 -0.1394  0.2759  0.3543
 4269TIP3   OH213235   4.557   0.560   4.506  0.5820  0.3002  0.1000
 4269TIP3    H113236   4.622   0.587   4.572  1.1391 -0.1736 -0.2539
 4269TIP3    H213237   4.489   0.627   4.511  0.9099  0.5927  0.7464
 4270TIP3   OH213238   2.639   4.315   0.231 -0.0058 -0.2988 -0.2650
 4270TIP3    H113239   2.655   4.405   0.202  1.7911 -0.2020  0.9577
 4270TIP3    H213240   2.603   4.324   0.319 -3.0912 -0.6812 -1.4465
 4271TIP3   OH213241   4.588   5.051   3.454 -0.0640  0.3008 -0.8675
 4271TIP3    H113242   4.596   5.062   3.359  0.5937 -0.1113 -0.8646
 4271TIP3    H213243   4.657   5.107   3.491  0.2909 -0.2568 -0.6763
 4272TIP3   OH213244   5.079   5.051   2.603 -0.4720 -0.1764  0.3912
 4272TIP3    H113245   5.083   5.145   2.624 -1.1693 -0.4436  1.8608
 4272TIP3    H213246   5.165   5.030   2.569 -0.0877  0.8736  0.6828
 4273TIP3   OH213247   2.132   5.665   1.813  0.0942 -0.8593  0.4960
 4273TIP3    H113248   2.156   5.707   1.896  0.8827  1.2211 -0.7458
 4273TIP3    H213249   2.197   5.595   1.803  0.6119 -0.4812  1.1404
 4274TIP3   OH213250   6.092   5.588   2.864  0.0118  0.3210 -0.6705
 4274TIP3    H113251   6.086   5.622   2.774  1.7242 -1.0603 -1.3341
 4274TIP3    H213252   6.081   5.665   2.919  0.2052  1.4002 -2.0958
 4275TIP3   OH213253   5.563   1.214   1.362 -0.7578  0.3452 -0.0368
 4275TIP3    H113254   5.540   1.169   1.443 -0.0926 -0.2108 -0.1410
 4275TIP3    H213255   5.649   1.178   1.339  0.1533  2.2498  0.2820
 4276TIP3   OH213256   3.496   4.861   3.868 -0.9997  0.5476 -0.1515
 4276TIP3    H113257   3.502   4.812   3.950  0.6580  0.1883 -0.4762
 4276TIP3    H213258   3.580   4.906   3.861 -0.9999  0.2963 -1.8340
 4277TIP3   OH213259   2.730   0.871   3.095  0.0498 -0.0250  0.4180
 4277TIP3    H113260   2.716   0.936   3.163 -0.5203 -1.4690  1.6961
 4277TIP3    H213261   2.728   0.787   3.141  1.9006 -0.8941 -1.0243
 4278TIP3   OH213262   1.594   0.901   0.766  0.0077  0.1651 -0.0826
 4278TIP3    H113263   1.625   0.906   0.676 -0.1980 -0.1301 -0.1718
 4278TIP3    H213264   1.502   0.926   0.762 -0.2455 -0.7463 -0.0957
 4279TIP3   OH213265   2.808   0.306   3.646  0.3148 -1.2272 -0.0056
 4279TIP3    H113266   2.796   0.395   3.679 -1.0245 -0.6497 -1.9573
 4279TIP3    H213267   2.734   0.291   3.588 -0.0989 -4.0605  1.1464
 4280TIP3   OH213268   0.137   5.229   1.358 -0.1120  0.3223 -0.5785
 4280TIP3    H113269   0.167   5.279   1.433  0.5151  0.6655 -1.0597
 4280TIP3    H213270   0.065   5.175   1.392  0.4511  0.1614  0.3596
 4281TIP3   OH213271   5.767   5.319   0.781 -0.3378  0.3815 -0.6654
 4281TIP3    H113272   5.829   5.286   0.847  0.3507  0.7398 -1.1222
 4281TIP3    H213273   5.692   5.260   0.786 -0.2518  0.3609  0.3828
 4282TIP3   OH213274   2.362   3.721   4.760 -0.0673 -0.7902 -0.5811
 4282TIP3    H113275   2.385   3.791   4.820 -0.1954  0.6670 -2.1823
 4282TIP3    H213276   2.272   3.698   4.782 -1.5769  2.5776 -2.8246
 4283TIP3   OH213277   2.844   4.457   2.965  0.8665  0.2956  0.2936
 4283TIP3    H113278   2.916   4.487   2.910 -0.3167 -0.8234 -1.9187
 4283TIP3    H213279   2.767   4.458   2.908 -0.3823 -1.0029  1.8807
 4284TIP3   OH213280   4.603   4.189   3.617 -0.3779  0.0582  0.2397
 4284TIP3    H113281   4.550   4.187   3.538  0.4284  1.0244 -0.3429
 4284TIP3    H213282   4.693   4.184   3.586 -0.0283  1.0507  1.0413
 4285TIP3   OH213283   0.523   4.898   2.233  0.0989  0.3441  0.4616
 4285TIP3    H113284   0.503   4.980   2.278 -1.5997 -0.2749  0.8772
 4285TIP3    H213285   0.481   4.831   2.287 -0.9486 -0.5285 -1.4314
 4286TIP3   OH213286   5.348   1.790   1.385 -0.3188 -0.1908  0.1705
 4286TIP3    H113287   5.363   1.714   1.329 -0.9067 -0.0857 -0.1280
 4286TIP3    H213288   5.277   1.838   1.342 -0.8043 -0.1330  1.0206
 4287TIP3   OH213289   4.528   0.423   4.970  0.1374 -0.2049  0.2401
 4287TIP3    H113290   4.461   0.425   4.901  0.4041  3.7445 -0.0054
 4287TIP3    H213291   4.487   0.374   5.042 -2.0977  0.0973 -0.7865
 4288TIP3   OH213292   5.906   5.685   2.332  0.8009 -0.0365 -0.0156
 4288TIP3    H113293   5.887   5.606   2.282  1.0362  0.6793 -1.2585
 4288TIP3    H213294   5.846   5.751   2.298  1.1743  0.5490  0.4335
 4289TIP3   OH213295   0.759   1.154   4.877 -0.1151 -0.1164  0.4971
 4289TIP3    H113296   0.704   1.189   4.807  1.0045  0.2759 -0.2000
 4289TIP3    H213297   0.804   1.230   4.913  1.4773 -0.6426 -0.2821
 4290TIP3   OH213298   5.630   3.689   4.103  0.2587  0.9901  0.8001
 4290TIP3    H113299   5.654   3.719   4.191 -1.2120 -2.1333  2.3342
 4290TIP3    H213300   5.536   3.708   4.096  0.5824  2.2094 -0.5617
 4291TIP3   OH213301   2.801   5.195   3.782  0.2951 -0.0471 -0.7835
 4291TIP3    H113302   2.786   5.220   3.691  1.4328  3.0451 -0.2046
 4291TIP3    H213303   2.737   5.247   3.831  2.1405  1.1622  0.4212
 4292TIP3   OH213304   3.397   4.860   3.208  0.3045  0.0160 -0.1933
 4292TIP3    H113305   3.425   4.771   3.187  2.1518  0.2921  0.9913
 4292TIP3    H213306   3.346   4.851   3.288  1.2059  0.1119  0.4000
 4293TIP3   OH213307   0.076   1.559   1.480 -0.7942  0.1321  0.1103
 4293TIP3    H113308   0.035   1.507   1.549 -0.4284  1.6833  1.5333
 4293TIP3    H213309   0.098   1.643   1.522  0.2065  0.8021 -1.6590
 4294TIP3   OH213310   5.699   3.520   3.465  0.2869 -0.1869 -0.0068
 4294TIP3    H113311   5.730   3.441   3.421 -1.2413 -1.2464  0.7873
 4294TIP3    H213312   5.752   3.524   3.545  2.1475  1.0236 -1.2518
 4295TIP3   OH213313   0.921   0.835   1.622 -1.0129 -0.8922 -0.6965
 4295TIP3    H113314   0.860   0.858   1.693 -0.5076 -1.6716 -0.0008
 4295TIP3    H213315   0.993   0.898   1.631 -1.2393 -0.6016 -0.9026
 4296TIP3   OH213316   1.130   5.445   4.281 -0.1502  0.0528  0.3934
 4296TIP3    H113317   1.138   5.350   4.289  1.1737  0.1464  0.3031
 4296TIP3    H213318   1.208   5.479   4.324 -1.6438  1.1882  2.2549
 4297TIP3   OH213319   1.650   5.015   2.419  0.0569  0.5429  0.8042
 4297TIP3    H113320   1.665   4.965   2.339 -0.6701 -0.5105  1.3210
 4297TIP3    H213321   1.664   5.106   2.393 -0.1806  0.2121 -0.5243
 4298TIP3   OH213322   5.821   0.852   3.740  0.0611 -0.5933  0.2208
 4298TIP3    H113323   5.778   0.811   3.815 -0.0666 -2.6763 -0.9786
 4298TIP3    H213324   5.752   0.865   3.676  0.1815  1.1557  0.4085
 4299TIP3   OH213325   3.613   5.270   3.110  0.1693 -0.2261  0.6336
 4299TIP3    H113326   3.644   5.340   3.166  3.4287 -0.7462 -0.4422
 4299TIP3    H213327   3.636   5.189   3.156 -1.8123 -0.6464  0.9492
 4300TIP3   OH213328   5.239   5.366   3.252 -0.0939 -0.3079  0.2844
 4300TIP3    H113329   5.236   5.383   3.346 -0.7695 -0.6417  0.3293
 4300TIP3    H213330   5.332   5.361   3.232  0.0964  1.5007  0.6132
 4301TIP3   OH213331   1.222   0.215   1.584 -0.2762 -0.1629  0.9624
 4301TIP3    H113332   1.203   0.302   1.619 -1.2964  1.1675 -2.5772
 4301TIP3    H213333   1.156   0.158   1.624 -0.8240  1.0731  1.8387
 4302TIP3   OH213334   5.123   3.892   1.833  0.3808  0.0590  0.3280
 4302TIP3    H113335   5.144   3.986   1.831 -2.0599  0.6194 -0.8563
 4302TIP3    H213336   5.040   3.888   1.881  1.4697 -1.7317  2.1350
 4303TIP3   OH213337   0.307   5.487   2.920 -0.5462  0.0111 -0.0427
 4303TIP3    H113338   0.245   5.415   2.903 -1.1505  0.1794  1.3535
 4303TIP3    H213339   0.390   5.443   2.936 -0.1502 -0.1954 -2.4395
 4304TIP3   OH213340   1.179   0.434   3.204  0.0296  0.5944 -0.0158
 4304TIP3    H113341   1.252   0.491   3.178  0.4002  0.3201  0.4040
 4304TIP3    H213342   1.222   0.354   3.235 -0.3821  0.9753  1.5883
 4305TIP3   OH213343   3.547   2.196   5.824 -0.2734 -0.9825  0.0511
 4305TIP3    H113344   3.508   2.111   5.843  0.6449 -1.7263 -1.3010
 4305TIP3    H213345   3.487   2.236   5.761 -0.8049 -0.5413  0.8324
 4306TIP3   OH213346   0.485   1.669   5.485 -0.5842 -0.1866  0.4968
 4306TIP3    H113347   0.553   1.637   5.426  1.1020  3.1218  0.5434
 4306TIP3    H213348   0.405   1.664   5.434  0.4222  0.1193 -1.1526
 4307TIP3   OH213349   6.067   4.170   4.261  0.0245 -0.2567 -0.5870
 4307TIP3    H113350   5.980   4.148   4.228 -0.0974  1.8199 -1.7314
 4307TIP3    H213351   6.127   4.143   4.192  0.1603 -0.2586 -0.4683
 4308TIP3   OH213352   5.981   1.054   4.927 -0.0645  0.5521 -0.8576
 4308TIP3    H113353   6.074   1.031   4.929 -0.4576 -1.1049 -0.8731
 4308TIP3    H213354   5.979   1.148   4.946  1.7479  1.0118 -2.6939
 4309TIP3   OH213355   0.379   1.176   5.684  0.6798  0.2185 -0.2074
 4309TIP3    H113356   0.395   1.106   5.620  1.6863 -1.0242  1.3718
 4309TIP3    H213357   0.392   1.257   5.634 -0.6026 -0.6946 -2.0866
 4310TIP3   OH213358   2.647   0.218   2.031 -0.3150  0.1002  0.2983
 4310TIP3    H113359   2.649   0.263   2.116  0.9384  0.0210  0.3177
 4310TIP3    H213360   2.606   0.281   1.972 -0.9824  0.2459  0.9078
 4311TIP3   OH213361   1.290   2.280   1.167  0.0910  0.0573  0.0333
 4311TIP3    H113362   1.336   2.341   1.224  1.3895 -0.5652 -0.3368
 4311TIP3    H213363   1.201   2.315   1.162  0.3790  0.9932  1.1570
 4312TIP3   OH213364   1.670   6.023   3.575  0.0644  0.2424  0.2114
 4312TIP3    H113365   1.651   6.097   3.516  0.8141  0.6472  0.4751
 4312TIP3    H213366   1.585   5.981   3.588 -0.1557  0.3280 -0.9249
 4313TIP3   OH213367   2.632   0.802   4.705  0.5787  0.7463  0.0663
 4313TIP3    H113368   2.664   0.733   4.763 -1.3756 -0.2915 -0.0270
 4313TIP3    H213369   2.537   0.793   4.708  0.3422  2.6994 -0.8726
 4314TIP3   OH213370   4.664   1.552   5.784  0.2598 -0.1447 -0.0022
 4314TIP3    H113371   4.586   1.598   5.751  0.1052 -0.0192  0.5334
 4314TIP3    H213372   4.681   1.593   5.869  1.7446  0.7814 -0.7297
 4315TIP3   OH213373   5.818   0.655   5.261 -0.3733 -0.0460  0.7124
 4315TIP3    H113374   5.840   0.711   5.187  0.2119 -1.1352  0.0492
 4315TIP3    H213375   5.799   0.716   5.332 -1.8769  1.0277 -0.5747
 4316TIP3   OH213376   1.051   5.682   3.227 -0.1933  0.1675  0.1711
 4316TIP3    H113377   1.113   5.746   3.193 -0.5739  0.2348 -0.4115
 4316TIP3    H213378   1.060   5.607   3.168  0.8401 -0.6363  1.3388
 4317TIP3   OH213379   5.794   5.583   5.436  0.4381  0.0544 -0.8625
 4317TIP3    H113380   5.882   5.581   5.472  0.7597 -0.3044 -1.6532
 4317TIP3    H213381   5.805   5.612   5.346 -0.0594 -1.6404 -1.4882
 4318TIP3   OH213382   0.363   2.612   4.617  0.1597  0.4103  0.6117
 4318TIP3    H113383   0.367   2.663   4.536  0.2711 -0.3461  0.1374
 4318TIP3    H213384   0.454   2.606   4.645  0.2370 -0.1837  0.2489
 4319TIP3   OH213385   2.363   2.290   4.974  0.1443 -0.3957  0.3849
 4319TIP3    H113386   2.290   2.262   5.030  0.6208 -2.0810  0.2013
 4319TIP3    H213387   2.413   2.351   5.027 -0.5091 -0.4536  1.0754
 4320TIP3   OH213388   0.595   6.049   4.948 -0.2973 -0.1179 -0.0702
 4320TIP3    H113389   0.570   6.020   4.860  1.6595 -0.0870 -0.6721
 4320TIP3    H213390   0.582   5.972   5.003  0.5916 -0.8150 -0.8208
 4321TIP3   OH213391   0.512   0.949   3.025 -0.0830 -0.6070  0.2713
 4321TIP3    H113392   0.462   0.921   2.948  1.2616 -1.8189 -0.2002
 4321TIP3    H213393   0.507   0.874   3.085  0.0856 -0.2365  0.7493
 4322TIP3   OH213394   1.167   0.393   1.857 -0.0385  0.1002 -0.2941
 4322TIP3    H113395   1.105   0.430   1.794  0.8821  0.1553 -1.1774
 4322TIP3    H213396   1.237   0.458   1.862  0.6942 -0.6885 -0.4590
 4323TIP3   OH213397   1.174   0.692   4.310  0.5761 -0.0653  0.0026
 4323TIP3    H113398   1.176   0.604   4.348  4.2101  0.1460  0.4154
 4323TIP3    H213399   1.124   0.744   4.373  0.7012 -1.2465  1.0940
 4324TIP3   OH213400   2.603   4.925   4.056  0.0226  0.2093  0.5955
 4324TIP3    H113401   2.581   4.923   3.963 -0.9893  1.7339  0.7800
 4324TIP3    H213402   2.686   4.973   4.059  0.2035 -0.0948  0.4491
 4325TIP3   OH213403   1.778   2.506   2.704  1.1037  0.8031 -0.1373
 4325TIP3    H113404   1.783   2.595   2.669  1.9821  0.8422  0.0605
 4325TIP3    H213405   1.839   2.506   2.779  1.3122 -0.0319 -0.2983
 4326TIP3   OH213406   4.911   4.381   4.512 -0.7577 -0.3786 -0.0132
 4326TIP3    H113407   4.987   4.342   4.555 -0.3707 -0.0366 -0.3864
 4326TIP3    H213408   4.947   4.432   4.440 -1.4464 -1.3753 -1.0665
 4327TIP3   OH213409   5.239   2.781   5.340  0.2820 -0.1205 -0.2022
 4327TIP3    H113410   5.193   2.842   5.399  0.7506 -0.8709  0.9473
 4327TIP3    H213411   5.327   2.817   5.334  0.4930 -0.5511  0.2900
 4328TIP3   OH213412   1.678   0.411   0.727  0.2373 -0.3335  0.0139
 4328TIP3    H113413   1.734   0.474   0.683 -0.6905  0.1087 -0.5558
 4328TIP3    H213414   1.593   0.421   0.684 -0.0263 -1.6673  0.2067
 4329TIP3   OH213415   1.208   4.665   3.790  0.0884  0.0385 -0.4066
 4329TIP3    H113416   1.130   4.610   3.786 -1.1090  1.3373  2.8403
 4329TIP3    H213417   1.177   4.753   3.771  0.8792  0.4667  0.2183
 4330TIP3   OH213418   2.286   0.343   4.977  0.5990  0.2017 -0.0567
 4330TIP3    H113419   2.380   0.359   4.972  0.4746  1.2321  0.8781
 4330TIP3    H213420   2.266   0.347   5.070 -0.4176  0.2330 -0.2731
 4331TIP3   OH213421   4.836   5.064   2.113  0.1199  0.3476  0.2406
 4331TIP3    H113422   4.803   5.027   2.030  1.7606 -0.5519 -0.0351
 4331TIP3    H213423   4.765   5.048   2.176 -0.4917 -0.4097 -0.6201
 4332TIP3   OH213424   1.712   0.819   4.406  0.0425  0.4521 -0.0115
 4332TIP3    H113425   1.640   0.819   4.343 -0.0578  2.5224  0.0417
 4332TIP3    H213426   1.790   0.801   4.353 -0.2969  0.1162 -0.3923
 4333TIP3   OH213427   2.143   1.507   3.410  0.2757 -0.2518 -0.1218
 4333TIP3    H113428   2.177   1.447   3.343 -0.7238  0.6383 -1.4474
 4333TIP3    H213429   2.068   1.462   3.447  0.5931 -0.5769  0.1299
 4334TIP3   OH213430   2.977   0.189   2.455 -0.6139  0.1659 -0.3532
 4334TIP3    H113431   2.990   0.206   2.548 -1.0267  1.3698 -0.5108
 4334TIP3    H213432   2.917   0.257   2.426 -0.6250 -0.3067 -1.4702
 4335TIP3   OH213433   2.537   1.324   4.340 -0.0775  0.4571  0.0069
 4335TIP3    H113434   2.569   1.332   4.430  0.0177 -0.6011  0.0800
 4335TIP3    H213435   2.496   1.408   4.321  0.6437  0.9834  0.7502
 4336TIP3   OH213436   6.084   5.087   3.588 -0.3701 -0.2301 -0.3896
 4336TIP3    H113437   6.076   5.007   3.640 -2.0582 -0.3152 -0.7587
 4336TIP3    H213438   6.168   5.077   3.542  0.6253 -0.6393  1.4553
 4337TIP3   OH213439   0.140   0.454   5.695 -0.5341  0.6421  0.0065
 4337TIP3    H113440   0.180   0.373   5.664  0.2977  1.9040 -2.3587
 4337TIP3    H213441   0.213   0.509   5.721 -0.7628  2.2246 -2.5087
 4338TIP3   OH213442   1.300   0.945   3.867  0.5486  0.0315  0.0829
 4338TIP3    H113443   1.383   0.915   3.832  1.6284  2.4277  0.4674
 4338TIP3    H213444   1.278   0.882   3.935  0.0097 -2.8785 -2.6820
 4339TIP3   OH213445   0.089   1.237   3.840 -0.3111  0.0664 -0.1071
 4339TIP3    H113446   0.165   1.219   3.895 -0.5105 -0.5631 -0.0418
 4339TIP3    H213447   0.055   1.151   3.817 -0.5798  0.3393 -0.7296
 4340TIP3   OH213448   0.199   0.708   4.771  0.3236  0.2898 -0.5108
 4340TIP3    H113449   0.282   0.747   4.745  0.3438 -0.9974 -2.5114
 4340TIP3    H213450   0.132   0.766   4.733  0.3339 -0.0202 -1.0079
 4341TIP3   OH213451   1.817   2.000   4.842  0.6551  0.3302 -0.2986
 4341TIP3    H113452   1.816   1.947   4.762  1.0579 -0.5116  0.2432
 4341TIP3    H213453   1.790   1.939   4.911  1.5281  0.7244  0.3970
 4342TIP3   OH213454   0.192   1.124   4.683 -0.1976 -0.2321  0.4550
 4342TIP3    H113455   0.149   1.207   4.700  0.4971 -0.1949  2.1990
 4342TIP3    H213456   0.280   1.148   4.653 -0.1616 -0.3242  0.4860
 4343TIP3   OH213457   2.395   0.465   1.596  0.1430 -0.7923 -1.2560
 4343TIP3    H113458   2.383   0.381   1.552  0.0346 -1.6055  0.2639
 4343TIP3    H213459   2.489   0.477   1.600  0.1959 -1.5384 -0.2162
 4344TIP3   OH213460   0.769   5.775   3.061 -0.6217  0.1834  0.5338
 4344TIP3    H113461   0.721   5.855   3.039  0.2700  0.4994 -0.3005
 4344TIP3    H213462   0.861   5.801   3.060 -0.3083 -0.8986  0.0560
 4345TIP3   OH213463   0.856   0.599   3.378  0.1177  0.5298 -0.1851
 4345TIP3    H113464   0.852   0.516   3.331  1.5105  0.9089 -0.9879
 4345TIP3    H213465   0.769   0.637   3.367  0.2734  0.3852 -2.0475
 4346TIP3   OH213466   1.619   3.875   2.023 -0.2818 -0.2698  0.3194
 4346TIP3    H113467   1.664   3.847   1.944 -0.8417 -0.7551  0.1719
 4346TIP3    H213468   1.661   3.958   2.047  1.1180 -1.0436  0.5530
 4347TIP3   OH213469   6.019   5.071   3.004  0.0340 -0.0477  0.2878
 4347TIP3    H113470   5.938   5.117   2.985  0.2337 -0.7526 -2.3557
 4347TIP3    H213471   6.007   4.983   2.969  1.3144 -0.6717  1.3547
 4348TIP3   OH213472   2.659   0.078   3.220  0.6211 -0.1087 -0.2734
 4348TIP3    H113473   2.616   0.095   3.137  0.1992  0.6289  0.0894
 4348TIP3    H213474   2.752   0.075   3.199  0.3830 -2.1917 -1.1372
 4349TIP3   OH213475   2.296   1.338   5.338 -0.2722 -0.3527 -0.4045
 4349TIP3    H113476   2.255   1.276   5.277  0.3776  0.3426 -1.5622
 4349TIP3    H213477   2.292   1.422   5.293  0.7146  0.0749  0.2823
 4350TIP3   OH213478   2.054   0.876   4.811  0.5132  0.4550  0.1538
 4350TIP3    H113479   2.139   0.894   4.849  0.7168 -1.9565  0.9206
 4350TIP3    H213480   2.067   0.886   4.717  1.5933  0.2734  0.2833
 4351TIP3   OH213481   4.460   1.150   4.339 -0.0167  0.6179  0.4143
 4351TIP3    H113482   4.518   1.226   4.342 -2.2176  2.3402  0.9224
 4351TIP3    H213483   4.424   1.150   4.251  2.0901 -1.5329 -0.4957
 4352TIP3   OH213484   0.879   2.108   4.387 -0.4210 -0.4224  0.4058
 4352TIP3    H113485   0.888   2.035   4.448 -0.6038 -0.7806  0.0072
 4352TIP3    H213486   0.802   2.086   4.335 -1.2371  0.6764  1.1338
 4353TIP3   OH213487   0.958   1.514   2.388  0.7654  0.1422  0.2445
 4353TIP3    H113488   1.051   1.516   2.364  0.4824 -1.0741 -0.9711
 4353TIP3    H213489   0.931   1.423   2.374 -0.6994  0.5583  0.2599
 4354TIP3   OH213490   1.382   2.111   5.346 -0.2280 -0.2544  0.4747
 4354TIP3    H113491   1.426   2.188   5.382 -1.2457  1.2184 -1.2676
 4354TIP3    H213492   1.325   2.080   5.416  0.5052  0.3418  1.3404
 4355TIP3   OH213493   5.386   1.920   3.045 -0.3820  0.1223 -0.6477
 4355TIP3    H113494   5.324   1.848   3.058 -1.0382  0.4923 -1.6822
 4355TIP3    H213495   5.360   1.986   3.110  0.8720 -0.9736  1.0172
 4356TIP3   OH213496   2.622   1.644   3.727 -0.4419 -0.0007  0.0350
 4356TIP3    H113497   2.683   1.659   3.799 -0.4158 -0.5930  0.1320
 4356TIP3    H213498   2.627   1.550   3.710  1.7987  0.5121 -2.6693
 4357TIP3   OH213499   0.255   2.373   4.808 -0.0342 -0.0718  0.7230
 4357TIP3    H113500   0.346   2.393   4.786 -0.4303 -0.6335 -1.6060
 4357TIP3    H213501   0.208   2.456   4.797 -0.0101 -0.0617  0.7001
 4358TIP3   OH213502   3.166   3.532   5.610 -0.5701 -0.5772  0.2451
 4358TIP3    H113503   3.130   3.619   5.592 -1.4910 -0.9467  0.2473
 4358TIP3    H213504   3.261   3.544   5.606 -0.6980  0.2121 -0.7671
 4359TIP3   OH213505   5.285   0.329   4.290  0.4289  0.0098 -0.2322
 4359TIP3    H113506   5.207   0.284   4.323  1.0108  0.5136  1.9000
 4359TIP3    H213507   5.275   0.327   4.195 -2.5502  0.6583  0.0007
 4360TIP3   OH213508   0.888   1.308   0.468 -0.4040 -0.3725 -0.1586
 4360TIP3    H113509   0.907   1.294   0.561 -1.0414 -0.3526 -0.0251
 4360TIP3    H213510   0.848   1.226   0.440 -1.9640  0.3148  0.0481
 4361TIP3   OH213511   0.418   1.570   3.876 -0.2264 -0.7257 -0.1454
 4361TIP3    H113512   0.337   1.613   3.904  0.1574  0.0388 -0.1925
 4361TIP3    H213513   0.454   1.532   3.956 -0.7162 -1.2191 -0.1544
 4362TIP3   OH213514   1.388   0.665   0.782 -0.5739  0.2385  0.4249
 4362TIP3    H113515   1.369   0.759   0.786  1.8724  0.8120 -0.6463
 4362TIP3    H213516   1.440   0.647   0.860  1.0859  0.3241 -0.6308
 4363TIP3   OH213517   2.644   5.853   3.300 -0.2149 -0.6209  0.1663
 4363TIP3    H113518   2.566   5.829   3.350 -0.4463 -0.7450 -0.2452
 4363TIP3    H213519   2.688   5.918   3.354 -1.1376  0.2035 -0.0459
 4364TIP3   OH213520   1.529   5.029   3.771 -0.2389  0.1735  0.0687
 4364TIP3    H113521   1.476   5.071   3.839 -2.4424 -3.6853  0.8709
 4364TIP3    H213522   1.471   5.022   3.696  0.9956  0.9683 -0.9953
 4365TIP3   OH213523   0.846   0.097   4.237 -0.1236 -0.7658  0.7655
 4365TIP3    H113524   0.837   0.192   4.239  0.7212 -0.6769  0.4665
 4365TIP3    H213525   0.910   0.078   4.305  1.6797 -0.8857 -0.9287
 4366TIP3   OH213526   1.696   4.893   3.209  0.3200  0.1549 -0.1441
 4366TIP3    H113527   1.767   4.955   3.195 -0.1311  0.7978  0.4380
 4366TIP3    H213528   1.670   4.906   3.300 -0.5183 -0.1153 -0.3467
 4367TIP3   OH213529   3.892   2.749   4.714 -0.0372 -0.6139 -0.0247
 4367TIP3    H113530   3.867   2.751   4.622  0.4296 -0.3642 -0.1405
 4367TIP3    H213531   3.836   2.681   4.752 -0.7881 -0.1673 -0.3249
 4368TIP3   OH213532   5.961   2.773   4.638  0.1565  0.4237  0.1273
 4368TIP3    H113533   6.045   2.734   4.615 -1.1011 -2.5159  0.4178
 4368TIP3    H213534   5.967   2.863   4.605  3.6656  0.4888  0.7665
 4369TIP3   OH213535   1.445   0.820   0.002  0.4316  0.2342 -0.9633
 4369TIP3    H113536   1.486   0.884   0.061 -0.6358 -0.1388  0.2298
 4369TIP3    H213537   1.372   0.868  -0.038 -1.8108 -0.8120  1.6828
 4370TIP3   OH213538   0.461   3.066   3.609 -0.6382 -0.1055 -0.1616
 4370TIP3    H113539   0.367   3.086   3.609 -0.9571 -1.4122 -3.5991
 4370TIP3    H213540   0.465   2.971   3.609  0.6342 -0.0783 -2.8491
 4371TIP3   OH213541   0.244   1.104   4.334 -0.1174 -0.0862 -0.2106
 4371TIP3    H113542   0.323   1.063   4.370  0.4902  0.5838 -0.7645
 4371TIP3    H213543   0.172   1.063   4.381  0.4874 -1.6462 -0.5982
 4372TIP3   OH213544   1.389   5.653   3.291 -0.5305  0.0931  0.2299
 4372TIP3    H113545   1.425   5.741   3.285  2.0469 -1.0541 -2.0447
 4372TIP3    H213546   1.341   5.640   3.209 -1.8813 -0.2371  1.0502
 4373TIP3   OH213547   5.769   0.446   0.054  0.0271  0.0518 -0.2314
 4373TIP3    H113548   5.710   0.522   0.044 -2.0752 -1.3734  0.8958
 4373TIP3    H213549   5.808   0.458   0.140 -1.0102 -0.5936  0.3409
 4374TIP3   OH213550   2.966   2.970   4.055 -0.3944 -0.2571  0.3238
 4374TIP3    H113551   2.903   2.973   4.127 -0.3555 -2.2819  0.4845
 4374TIP3    H213552   2.916   2.934   3.982 -0.5866  2.3260 -0.8584
 4375TIP3   OH213553   1.158   1.803   5.812 -0.3506 -0.4323 -0.1061
 4375TIP3    H113554   1.090   1.868   5.834  0.7284  0.0565  1.9867
 4375TIP3    H213555   1.122   1.754   5.739 -2.1225  1.1266 -0.3199
 4376TIP3   OH213556   1.871   5.973   1.190 -0.0692 -0.0625 -0.0122
 4376TIP3    H113557   1.872   5.883   1.221 -0.4515  0.2380  0.9018
 4376TIP3    H213558   1.782   6.004   1.210  0.2779  0.7308  0.3481
 4377TIP3   OH213559   1.439   1.240   4.283 -0.5212 -0.2828 -0.0073
 4377TIP3    H113560   1.465   1.211   4.370  0.9492  1.4733  0.1657
 4377TIP3    H213561   1.468   1.169   4.225  0.1942 -0.5989  0.7250
 4378TIP3   OH213562   5.552   1.930   4.071  0.0474  0.2604  0.4813
 4378TIP3    H113563   5.618   1.878   4.025 -0.5305 -0.5152  0.5181
 4378TIP3    H213564   5.602   1.980   4.136  0.7102  0.4155 -0.1361
 4379TIP3   OH213565   2.553   1.388   2.746 -0.5952  0.2181  0.2806
 4379TIP3    H113566   2.628   1.329   2.753 -0.3939  0.6202  1.6346
 4379TIP3    H213567   2.492   1.342   2.688  0.3288 -0.4881 -0.1524
 4380TIP3   OH213568   2.140   2.342   3.691 -0.1781 -0.0260  0.1250
 4380TIP3    H113569   2.086   2.419   3.708 -1.3346 -0.8294  0.1353
 4380TIP3    H213570   2.118   2.317   3.602  0.8235  0.1496 -0.1746
 4381TIP3   OH213571   0.374   0.082   5.831 -0.0898 -0.7653 -0.2333
 4381TIP3    H113572   0.416   0.166   5.847  0.7873 -1.3066  0.3648
 4381TIP3    H213573   0.360   0.079   5.737 -1.3392  0.6046 -0.1151
 4382TIP3   OH213574   2.082   0.649   5.960 -0.5295  0.2001 -0.7692
 4382TIP3    H113575   2.053   0.606   5.880 -3.1775  1.1411 -0.3677
 4382TIP3    H213576   2.030   0.609   6.029  0.8559  0.2603  0.3274
 4383TIP3   OH213577   1.840   5.196   4.485 -0.1798 -0.0550  0.5217
 4383TIP3    H113578   1.763   5.167   4.534  0.3979 -0.4645  1.1894
 4383TIP3    H213579   1.806   5.219   4.398 -1.1083  0.0942  0.9232
 4384TIP3   OH213580   3.293   4.748   3.730 -0.1014 -0.2218  0.2445
 4384TIP3    H113581   3.312   4.656   3.749 -0.6893  0.0578  2.2991
 4384TIP3    H213582   3.356   4.797   3.783 -0.9818  0.5665  0.5918
 4385TIP3   OH213583   4.812   0.670   5.947  0.0196  0.3864 -0.4380
 4385TIP3    H113584   4.771   0.622   6.020 -1.8762 -0.8384 -2.2461
 4385TIP3    H213585   4.787   0.762   5.962  0.5893  0.3086  1.0467
 4386TIP3   OH213586   0.802   4.271   4.506  0.5892 -0.2952 -0.3174
 4386TIP3    H113587   0.845   4.188   4.528  1.2716  0.7350  2.3654
 4386TIP3    H213588   0.874   4.334   4.498  0.0204  0.2018 -1.7555
 4387TIP3   OH213589   1.234   2.633   3.348  0.3085  0.0675  0.9135
 4387TIP3    H113590   1.229   2.697   3.419 -1.2309  0.9769  0.0336
 4387TIP3    H213591   1.256   2.685   3.271 -0.1397 -0.5699  0.3435
 4388TIP3   OH213592   2.206   1.692   5.504 -0.2744  0.7939 -0.4562
 4388TIP3    H113593   2.279   1.672   5.446  1.6079 -0.0902  2.0984
 4388TIP3    H213594   2.206   1.787   5.511  1.0312  0.7797 -0.0479
 4389TIP3   OH213595   0.621   1.333   5.165 -0.0846  0.6958  0.0292
 4389TIP3    H113596   0.693   1.321   5.103 -1.1078 -0.8508 -0.9000
 4389TIP3    H213597   0.542   1.332   5.110 -1.0459 -1.1506  1.3771
 4390TIP3   OH213598   2.085   0.606   0.336 -0.2831  0.0263  0.2439
 4390TIP3    H113599   2.051   0.639   0.253 -0.0859  0.8388  0.4845
 4390TIP3    H213600   2.052   0.516   0.341 -1.0604  0.2778 -0.2762
 4391TIP3   OH213601   5.104   0.138   4.420  0.3235 -0.3538  0.4925
 4391TIP3    H113602   5.107   0.078   4.494  0.1361 -1.1526 -0.1507
 4391TIP3    H213603   5.040   0.205   4.446  2.2267  0.8556  2.1662
 4392TIP3   OH213604   0.639   1.981   4.596 -0.0469 -0.0186 -0.0052
 4392TIP3    H113605   0.652   2.074   4.613  0.6613 -0.0831 -0.1590
 4392TIP3    H213606   0.688   1.937   4.666  1.3634 -0.2801 -1.1281
 4393TIP3   OH213607   5.899   6.062   5.330 -0.2035 -0.7970  0.3965
 4393TIP3    H113608   5.893   6.101   5.417  1.7421 -2.1650  1.1879
 4393TIP3    H213609   5.824   6.002   5.325  0.9238 -2.3886  2.0333
 4394TIP3   OH213610   0.810   0.501   0.348  0.4422  0.2457  0.3922
 4394TIP3    H113611   0.898   0.465   0.335  0.2061  0.1489 -0.9882
 4394TIP3    H213612   0.768   0.493   0.263 -1.1466 -0.3195  1.2162
 4395TIP3   OH213613   1.803   0.518   1.436 -0.0664 -0.1740 -0.1775
 4395TIP3    H113614   1.853   0.599   1.422  0.2365 -0.4077 -0.4471
 4395TIP3    H213615   1.848   0.453   1.383  0.7502 -0.9413  1.4096
 4396TIP3   OH213616   2.696   2.267   5.634  0.2012 -0.2623  0.1155
 4396TIP3    H113617   2.650   2.246   5.716 -0.7296  0.5519 -0.1913
 4396TIP3    H213618   2.782   2.225   5.644  0.2746  0.2133  1.7041
 4397TIP3   OH213619   5.921   0.785   0.346 -0.7228 -0.1731 -0.6509
 4397TIP3    H113620   5.879   0.855   0.295  0.8152  0.7400 -0.7332
 4397TIP3    H213621   5.868   0.777   0.425 -1.3921  0.5242 -1.0169
 4398TIP3   OH213622   2.924   0.576   4.974 -0.0281 -0.0083  0.1690
 4398TIP3    H113623   2.831   0.601   4.968 -0.3405 -1.0294  0.6460
 4398TIP3    H213624   2.932   0.534   5.059  1.0788  0.8420  0.5061
 4399TIP3   OH213625   0.419   0.362   4.092 -0.2994  0.3054  0.0565
 4399TIP3    H113626   0.444   0.394   4.179 -1.1154  1.2336 -0.0458
 4399TIP3    H213627   0.364   0.286   4.109  0.4431 -0.1787  0.3266
 4400TIP3   OH213628   0.486   5.391   5.995  0.7075 -0.2758 -0.2571
 4400TIP3    H113629   0.461   5.324   6.059  1.6012 -0.9735 -0.6335
 4400TIP3    H213630   0.530   5.458   6.046 -0.2267  0.0519  0.1274
 4401TIP3   OH213631   1.335   2.514   2.523 -0.0898  0.5217 -0.6025
 4401TIP3    H113632   1.295   2.558   2.448 -0.6570  0.2684 -0.4552
 4401TIP3    H213633   1.265   2.457   2.557 -0.4187  1.9858  1.2240
 4402TIP3   OH213634   5.818   1.396   3.483  0.1170 -0.2017 -0.0331
 4402TIP3    H113635   5.759   1.447   3.538  0.2153 -1.0130  0.8523
 4402TIP3    H213636   5.867   1.461   3.433  0.2660  0.5814  1.1031
 4403TIP3   OH213637   5.647   3.772   2.635  0.5205 -0.2872 -0.5635
 4403TIP3    H113638   5.612   3.684   2.647  0.3386 -0.0075  1.0675
 4403TIP3    H213639   5.589   3.828   2.686  3.3742  0.1985  2.2911
 4404TIP3   OH213640   1.973   3.212   4.938 -0.6022  0.4130 -0.2124
 4404TIP3    H113641   1.915   3.289   4.933  0.2951  1.1964  1.2340
 4404TIP3    H213642   2.050   3.243   4.985 -0.9609 -1.8317  1.9588
 4405TIP3   OH213643   4.387   1.821   5.357  0.2295  0.0261 -0.1683
 4405TIP3    H113644   4.443   1.832   5.433 -1.8463  0.1933  1.4036
 4405TIP3    H213645   4.408   1.735   5.322  1.5082  0.1407  0.3297
 4406TIP3   OH213646   0.672   0.657   5.340 -0.8796  0.1529 -0.1946
 4406TIP3    H113647   0.738   0.668   5.272 -1.5675 -1.8259 -1.2264
 4406TIP3    H213648   0.716   0.609   5.410 -1.2491 -1.3886 -0.9876
 4407TIP3   OH213649   1.282   1.094   3.633 -0.0330  0.1068 -0.5179
 4407TIP3    H113650   1.293   1.063   3.723 -1.8877  0.6858 -0.0732
 4407TIP3    H213651   1.219   1.033   3.594  0.3066  0.2144 -1.2542
 4408TIP3   OH213652   5.543   5.535   5.544  0.0991  0.5083  0.2687
 4408TIP3    H113653   5.637   5.533   5.523 -0.1827 -0.5860 -1.0048
 4408TIP3    H213654   5.534   5.472   5.616  0.0534 -0.9892 -1.0090
 4409TIP3   OH213655   5.577   1.076   3.751 -0.3221 -0.0628  0.1246
 4409TIP3    H113656   5.662   1.082   3.708  1.0308 -1.4136  2.4991
 4409TIP3    H213657   5.567   1.159   3.798 -0.9409  0.6344 -1.2148
 4410TIP3   OH213658   5.089   1.704   5.507  0.5602  0.2968 -0.2125
 4410TIP3    H113659   5.130   1.620   5.488 -0.7584 -0.5539  0.6651
 4410TIP3    H213660   5.075   1.744   5.421 -0.2670 -1.0741 -0.7177
 4411TIP3   OH213661   0.723   0.678   2.910 -0.1449  0.1045  0.3803
 4411TIP3    H113662   0.645   0.660   2.962 -0.9420 -1.3529 -1.2518
 4411TIP3    H213663   0.729   0.604   2.850  1.1815  1.3556 -1.0792
 4412TIP3   OH213664   0.440   1.900   4.755  0.4915 -0.1877  0.2191
 4412TIP3    H113665   0.511   1.928   4.696 -1.7727  0.7529 -2.1471
 4412TIP3    H213666   0.428   1.975   4.814 -0.0251  0.5573 -0.8190
 4413TIP3   OH213667   4.974   0.642   3.396  0.4732  0.3726 -0.0611
 4413TIP3    H113668   4.965   0.665   3.488 -0.9720  2.4361 -0.6659
 4413TIP3    H213669   4.956   0.548   3.392  0.2699  0.3306  1.7126
 4414TIP3   OH213670   0.248   1.347   4.243  0.2025 -0.7867 -0.0035
 4414TIP3    H113671   0.213   1.417   4.298 -0.8146 -0.8885 -0.5161
 4414TIP3    H213672   0.235   1.267   4.295  2.4864 -0.4876  1.1167
 4415TIP3   OH213673   0.603   2.450   0.040 -0.3860  0.0497  0.1350
 4415TIP3    H113674   0.517   2.462  -0.001 -0.3658  0.4447  0.1982
 4415TIP3    H213675   0.584   2.406   0.123 -0.3818 -1.1517 -0.4958
 4416TIP3   OH213676   0.162   1.348   3.264  0.6795 -0.1808 -0.6596
 4416TIP3    H113677   0.168   1.276   3.200 -1.2103  0.6017 -1.7478
 4416TIP3    H213678   0.218   1.416   3.227  0.1726 -0.0066 -1.1109
 4417TIP3   OH213679   1.596   1.542   2.863 -0.7915  0.2185 -0.8104
 4417TIP3    H113680   1.571   1.493   2.785  2.0701  2.4284 -3.2564
 4417TIP3    H213681   1.532   1.612   2.869 -0.3941  0.6949 -1.8873
 4418TIP3   OH213682   2.046   2.178   0.162 -0.2183  0.1824 -0.5697
 4418TIP3    H113683   2.032   2.217   0.248  0.3387  0.7420 -0.7366
 4418TIP3    H213684   2.034   2.084   0.177  3.0120 -0.0557  0.7689
 4419TIP3   OH213685   2.267   0.424   4.344  0.0651  0.0457 -0.5380
 4419TIP3    H113686   2.311   0.339   4.342  0.5061  0.2774 -0.5833
 4419TIP3    H213687   2.337   0.488   4.352 -0.0210  0.6088 -3.6929
 4420TIP3   OH213688   4.010   0.522   1.304 -0.3849 -0.5539 -0.1710
 4420TIP3    H113689   4.105   0.524   1.310 -0.4100 -0.7825  0.3281
 4420TIP3    H213690   3.981   0.493   1.391 -1.0227  2.2672  0.5849
 4421TIP3   OH213691   0.029   5.910   4.846 -0.0611 -0.0250 -0.1032
 4421TIP3    H113692   0.017   5.962   4.926 -0.1655  0.9766 -0.7556
 4421TIP3    H213693  -0.001   5.968   4.776  0.0724 -0.8813 -0.8702
 4422TIP3   OH213694   0.903   1.297   1.075  0.2825 -0.6407 -0.2322
 4422TIP3    H113695   0.811   1.308   1.100  0.7703 -1.6266  2.1531
 4422TIP3    H213696   0.941   1.384   1.085 -0.1846 -0.4214 -0.3263
 4423TIP3   OH213697   1.631   0.456   5.179  0.0653 -0.2295 -0.2208
 4423TIP3    H113698   1.563   0.437   5.244  0.9054  0.9325  1.0403
 4423TIP3    H213699   1.594   0.527   5.126 -0.7596 -1.4102 -1.2513
 4424TIP3   OH213700   1.080   2.836   5.837  0.2671 -0.3957  0.1255
 4424TIP3    H113701   1.156   2.889   5.811 -0.0744  0.9849  1.8453
 4424TIP3    H213702   1.021   2.840   5.762  0.4849  1.2343  0.0169
 4425TIP3   OH213703   5.776   2.100   4.743  0.1286  0.0636 -0.1947
 4425TIP3    H113704   5.798   2.190   4.769 -1.6206  0.3627  0.3462
 4425TIP3    H213705   5.848   2.047   4.776 -0.0370  0.9706  1.7063
 4426TIP3   OH213706   4.373   0.991   1.058 -0.2397  0.4885  0.4515
 4426TIP3    H113707   4.434   0.930   1.015 -0.1846  1.4660 -0.8817
 4426TIP3    H213708   4.337   0.940   1.131  0.9272 -0.6509  0.2687
 4427TIP3   OH213709   1.165   5.716   5.995 -0.3676  0.2184  0.3281
 4427TIP3    H113710   1.249   5.670   5.993  0.7442  2.1959 -0.9991
 4427TIP3    H213711   1.134   5.708   6.085  0.0093 -2.6484  0.2463
 4428TIP3   OH213712   0.647   2.489   3.357  0.3946  0.2841 -0.0535
 4428TIP3    H113713   0.562   2.518   3.390 -0.3825 -1.1850 -0.7462
 4428TIP3    H213714   0.705   2.493   3.434 -1.0975 -1.9075  1.2101
 4429TIP3   OH213715   5.137   5.138   1.851 -0.2535 -0.1890 -0.5741
 4429TIP3    H113716   5.179   5.116   1.935  1.7176  2.0531 -0.9279
 4429TIP3    H213717   5.058   5.186   1.875  0.4162  0.6346  0.0239
 4430TIP3   OH213718   2.282   6.077   4.173  0.6028 -0.1358 -0.6195
 4430TIP3    H113719   2.226   6.047   4.101 -0.3017 -2.1330  0.8945
 4430TIP3    H213720   2.316   5.996   4.212  1.1960  0.9455  1.1280
 4431TIP3   OH213721   0.461   0.718   1.870 -0.4422 -0.2992 -0.1310
 4431TIP3    H113722   0.411   0.637   1.868 -0.0965 -0.5199  0.2019
 4431TIP3    H213723   0.428   0.768   1.795 -1.3172 -0.3423  0.2227
 4432TIP3   OH213724   6.063   0.988   3.810 -0.5379  0.3751  0.3729
 4432TIP3    H113725   6.114   0.916   3.771 -0.5555  0.3396  0.4159
 4432TIP3    H213726   5.974   0.954   3.815 -0.2911 -0.1039  1.6751
 4433TIP3   OH213727   4.636   2.494   3.260  0.1238  0.3892 -0.3523
 4433TIP3    H113728   4.691   2.448   3.196 -0.6413 -0.9441 -0.0576
 4433TIP3    H213729   4.556   2.514   3.213 -1.0622 -1.9430  0.5779
 4434TIP3   OH213730   5.421   2.539   4.960 -0.1256 -0.0105  0.0855
 4434TIP3    H113731   5.472   2.462   4.986  0.7552 -0.1864 -2.0643
 4434TIP3    H213732   5.333   2.505   4.944 -0.1353 -0.2765  0.6756
 4435TIP3   OH213733   3.633   1.700   5.630 -0.2392 -0.4559  0.0486
 4435TIP3    H113734   3.561   1.718   5.690 -1.8180 -0.2215 -1.8732
 4435TIP3    H213735   3.621   1.609   5.605 -1.6798  0.4110 -2.5881
 4436TIP3   OH213736   4.048   1.369   4.565 -0.3103  0.1099 -0.5129
 4436TIP3    H113737   3.996   1.291   4.585 -0.2958 -0.4583 -2.5900
 4436TIP3    H213738   4.048   1.419   4.647 -0.8983 -1.7204  0.6383
 4437TIP3   OH213739   1.865   0.806   2.902 -0.0779 -0.1399 -0.4646
 4437TIP3    H113740   1.896   0.886   2.861 -1.0558  0.1186 -0.7285
 4437TIP3    H213741   1.915   0.736   2.859  0.9377  0.3358 -0.0725
 4438TIP3   OH213742   1.592   0.971   0.167  0.1609  0.4324 -0.2501
 4438TIP3    H113743   1.598   0.888   0.214 -1.9371 -0.6405 -1.7591
 4438TIP3    H213744   1.668   1.021   0.195  1.2964 -1.8940  0.9248
 4439TIP3   OH213745   2.638   1.611   5.072  0.5132 -0.5326  0.2921
 4439TIP3    H113746   2.721   1.657   5.086 -0.0224  0.3096  0.7476
 4439TIP3    H213747   2.661   1.518   5.076  1.5096 -0.3142 -0.0392
 4440TIP3   OH213748   0.526   0.105   5.172  0.3065 -0.0911  0.2508
 4440TIP3    H113749   0.579   0.049   5.228  0.7925  0.1104 -0.0041
 4440TIP3    H213750   0.545   0.075   5.083 -0.9139 -0.8087  0.2211
 4441TIP3   OH213751   0.754   6.078   2.350 -0.4084 -0.3398 -0.2565
 4441TIP3    H113752   0.759   6.140   2.278 -0.0756 -0.4590 -0.3363
 4441TIP3    H213753   0.661   6.057   2.357 -0.5511  0.3383 -0.0829
 4442TIP3   OH213754   0.849   4.848   3.429 -0.1116  0.4294  0.2042
 4442TIP3    H113755   0.802   4.776   3.387 -0.6350 -0.0929  1.6516
 4442TIP3    H213756   0.909   4.881   3.362  0.3309 -1.5369 -0.3782
 4443TIP3   OH213757   1.462   0.648   0.485  0.3215 -0.7347  0.1249
 4443TIP3    H113758   1.472   0.620   0.575  1.5480 -1.5115 -0.2407
 4443TIP3    H213759   1.429   0.570   0.439  1.9152 -1.0538 -0.5267
 4444TIP3   OH213760   3.059   1.863   4.164 -0.5832  0.9996  0.4501
 4444TIP3    H113761   3.007   1.824   4.235  0.4235 -0.9913  0.1306
 4444TIP3    H213762   3.023   1.824   4.084  2.8428 -2.2299  0.3672
 4445TIP3   OH213763   4.092   1.919   5.784  0.0076 -0.8533 -0.4703
 4445TIP3    H113764   4.119   2.010   5.773 -4.0424  0.4177 -0.9689
 4445TIP3    H213765   4.136   1.890   5.864 -0.9958  2.5634  1.4116
 4446TIP3   OH213766   5.574   5.607   0.254 -0.3664  0.0380 -0.1202
 4446TIP3    H113767   5.639   5.591   0.322 -0.8691 -1.5047 -0.0021
 4446TIP3    H213768   5.587   5.536   0.191 -1.4964  0.0949 -0.4271
 4447TIP3   OH213769   1.922   5.718   4.111  0.3228  1.0693  0.2892
 4447TIP3    H113770   1.992   5.710   4.175 -0.3152  1.0761  0.9985
 4447TIP3    H213771   1.842   5.709   4.162 -0.1769 -1.7320 -0.8928
 4448TIP3   OH213772   2.345   0.900   0.241  0.6859  0.5975 -0.7712
 4448TIP3    H113773   2.259   0.890   0.281  0.3347  0.3229 -1.5815
 4448TIP3    H213774   2.328   0.901   0.146  1.8613 -2.6805 -1.0800
 4449TIP3   OH213775   2.410   1.012   2.156 -0.5886 -0.0027  0.6111
 4449TIP3    H113776   2.336   0.964   2.118 -0.4060 -0.5805  0.9835
 4449TIP3    H213777   2.380   1.102   2.161 -1.3618 -0.2749  0.9725
 4450TIP3   OH213778   0.183   1.070   5.282 -0.6886  0.4524  0.1685
 4450TIP3    H113779   0.189   0.993   5.226  0.1311  0.5130  0.1646
 4450TIP3    H213780   0.231   1.046   5.362  0.2181  1.2106 -0.1303
 4451TIP3   OH213781   2.086   5.101   0.362  0.0244  0.3565 -0.5353
 4451TIP3    H113782   2.032   5.117   0.285  1.3416  0.8844 -1.3559
 4451TIP3    H213783   2.080   5.183   0.413 -0.5355  0.1457 -0.2555
 4452TIP3   OH213784   2.382   1.932   5.043  0.0625 -0.6498  0.5330
 4452TIP3    H113785   2.391   2.005   5.104 -1.2979  0.6778 -0.8200
 4452TIP3    H213786   2.363   1.856   5.098 -0.1865  0.3459  1.8291
 4453TIP3   OH213787   1.380   2.995   4.993  0.3376 -0.1097 -0.6501
 4453TIP3    H113788   1.337   2.987   4.908  0.6221 -0.0494 -0.7994
 4453TIP3    H213789   1.308   3.015   5.054 -0.1512 -2.1096 -0.5372
 4454TIP3   OH213790   0.250   2.902   3.527  0.3296  0.9452  0.8137
 4454TIP3    H113791   0.252   2.919   3.433  2.6209  0.6436  0.7854
 4454TIP3    H213792   0.160   2.875   3.544 -0.5885  2.7344 -0.9720
 4455TIP3   OH213793   1.533   0.459   2.631 -0.4603  0.3598 -0.0690
 4455TIP3    H113794   1.458   0.405   2.657 -1.2331  0.9140 -1.1291
 4455TIP3    H213795   1.578   0.478   2.714 -3.2386  2.6132  1.0088
 4456TIP3   OH213796   0.036   0.308   5.218  0.0214 -0.0839 -0.1604
 4456TIP3    H113797   0.061   0.249   5.146 -0.1740 -1.1043  0.5951
 4456TIP3    H213798  -0.059   0.317   5.210  0.0109 -0.1264 -0.0814
 4457TIP3   OH213799   0.130   4.068   0.439 -0.1343  0.2540  0.4007
 4457TIP3    H113800   0.179   4.150   0.429 -0.2577  0.5296  1.9587
 4457TIP3    H213801   0.040   4.091   0.417  0.2645 -0.0573 -1.6380
 4458TIP3   OH213802   2.504   1.267   3.451  1.1430  0.2740 -0.3805
 4458TIP3    H113803   2.586   1.316   3.444  0.5784  0.9886 -2.5790
 4458TIP3    H213804   2.526   1.180   3.417  1.8149 -0.6145  2.2622
 4459TIP3   OH213805   1.298   2.892   5.483  0.0405 -0.2729  0.3971
 4459TIP3    H113806   1.234   2.920   5.549 -1.0199  0.1454 -0.7817
 4459TIP3    H213807   1.347   2.972   5.463 -0.6936 -0.0417 -0.4720
 4460TIP3   OH213808   5.607   2.370   5.853  0.2195  0.1960  0.1570
 4460TIP3    H113809   5.618   2.389   5.760  0.7702  0.5653  0.2950
 4460TIP3    H213810   5.528   2.417   5.879  0.1318  0.1870 -0.0996
 4461TIP3   OH213811   3.183   5.446   0.947  0.5002 -0.0828 -0.1284
 4461TIP3    H113812   3.127   5.369   0.937  2.2034 -1.2399 -0.8854
 4461TIP3    H213813   3.130   5.518   0.912 -0.1544 -1.3049 -1.6998
 4462TIP3   OH213814   1.697   0.722   0.291 -0.2681 -0.5659  0.0738
 4462TIP3    H113815   1.672   0.757   0.376  0.5816 -1.4330  0.6876
 4462TIP3    H213816   1.634   0.651   0.275 -0.9673  0.1497 -0.4298
 4463TIP3   OH213817   2.522   1.596   4.135  0.1392 -0.1338  0.4758
 4463TIP3    H113818   2.447   1.656   4.136  0.4791  0.3172 -0.2510
 4463TIP3    H213819   2.509   1.543   4.056 -0.8569 -1.9333  1.8192
 4464TIP3   OH213820   0.474   0.931   4.025  0.0051  0.3571 -0.6794
 4464TIP3    H113821   0.533   0.993   4.069  0.3770  0.0864 -0.7970
 4464TIP3    H213822   0.528   0.890   3.958 -0.0154 -0.7343 -0.0247
 4465TIP3   OH213823   0.820   1.264   5.930  0.2271 -0.2638  1.0029
 4465TIP3    H113824   0.912   1.242   5.945 -0.5953 -2.6205  2.9965
 4465TIP3    H213825   0.795   1.211   5.855  0.7502  1.2448 -0.2742
 4466TIP3   OH213826   1.222   2.582   5.780 -0.0025  0.2162  0.0871
 4466TIP3    H113827   1.310   2.621   5.781 -0.2818  0.8516  0.1213
 4466TIP3    H213828   1.164   2.654   5.804 -0.6045 -0.0423 -0.5767
 4467TIP3   OH213829   1.683   4.814   2.918 -0.3366  0.1132  0.0839
 4467TIP3    H113830   1.662   4.903   2.891 -0.6041 -0.1039 -0.4247
 4467TIP3    H213831   1.684   4.818   3.014  1.4983  1.0793  0.0371
 4468TIP3   OH213832   3.851   5.357   5.061  0.8926  0.0745 -0.4293
 4468TIP3    H113833   3.842   5.276   5.012  0.1690  0.8521 -1.6191
 4468TIP3    H213834   3.775   5.359   5.119  0.5620  0.2102 -0.8648
 4469TIP3   OH213835   0.561   0.822   3.780  0.1237 -0.5901  0.2072
 4469TIP3    H113836   0.628   0.889   3.771  1.9434 -1.9254  3.1295
 4469TIP3    H213837   0.478   0.870   3.771  1.4094  1.4699 -1.0237
 4470TIP3   OH213838   5.231   0.401   6.084 -0.9713  0.0742 -0.3432
 4470TIP3    H113839   5.298   0.336   6.063 -0.3675 -0.3374  2.6814
 4470TIP3    H213840   5.276   0.485   6.081 -0.9089  0.0296 -0.7052
 4471TIP3   OH213841   2.968   0.451   3.447 -0.1399  0.1223  0.5131
 4471TIP3    H113842   3.051   0.423   3.484  0.4855  1.6086  0.2992
 4471TIP3    H213843   2.940   0.523   3.503 -0.6038  0.5097 -0.2034
 4472TIP3   OH213844   1.570   1.298   0.394 -0.7141 -0.4666  0.1827
 4472TIP3    H113845   1.648   1.249   0.370 -0.8581 -1.3606  1.5278
 4472TIP3    H213846   1.545   1.344   0.313  0.4147 -1.2301 -0.6110
 4473TIP3   OH213847   5.744   1.382   3.091  0.4091 -0.1705 -0.2290
 4473TIP3    H113848   5.782   1.319   3.152 -0.4529 -2.0376 -1.5797
 4473TIP3    H213849   5.810   1.390   3.022  1.4073  1.9802  0.9322
 4474TIP3   OH213850   1.626   5.968   3.974 -0.2870  0.8439 -0.6443
 4474TIP3    H113851   1.545   6.014   3.995 -0.5210  0.2640 -0.2768
 4474TIP3    H213852   1.601   5.876   3.971  0.9026  0.4112  2.0772
 4475TIP3   OH213853   1.399   0.871   5.496  0.2583  0.3955  0.0978
 4475TIP3    H113854   1.342   0.882   5.419  0.0362  1.0136  0.3456
 4475TIP3    H213855   1.340   0.851   5.568  0.3535  0.9342  0.3352
 4476TIP3   OH213856   2.175   1.481   4.222 -0.0755  0.3410 -0.1484
 4476TIP3    H113857   2.248   1.418   4.225  1.0404  1.5399 -1.6716
 4476TIP3    H213858   2.155   1.491   4.129 -0.1782  2.3070  0.0715
 4477TIP3   OH213859   0.139   4.941   5.748  0.3530  0.1129 -0.3127
 4477TIP3    H113860   0.215   4.889   5.724  0.2413 -0.9267  1.4693
 4477TIP3    H213861   0.172   5.003   5.813 -0.2968 -0.2987  0.4204
 4478TIP3   OH213862   1.636   1.661   0.069 -0.0771  0.4441  0.1134
 4478TIP3    H113863   1.601   1.747   0.046  2.6201  1.0936 -1.9292
 4478TIP3    H213864   1.651   1.618  -0.015  0.7856 -1.0875  1.0246
 4479TIP3   OH213865   1.200   0.321   5.554 -0.3707  0.2431 -0.4657
 4479TIP3    H113866   1.177   0.390   5.617  1.9992  2.3288 -1.8121
 4479TIP3    H213867   1.142   0.335   5.480 -1.9256 -1.1064  0.4510
 4480TIP3   OH213868   1.967   5.511   5.353  0.1267  0.2486  0.0905
 4480TIP3    H113869   1.881   5.470   5.354 -0.8097  2.1890  0.0303
 4480TIP3    H213870   1.982   5.534   5.262  0.3658  0.6586  0.2331
 4481TIP3   OH213871   0.430   5.649   2.664  0.5102 -0.2986  0.4247
 4481TIP3    H113872   0.415   5.670   2.756 -1.5457  0.2403 -0.0105
 4481TIP3    H213873   0.441   5.554   2.663 -1.1499 -0.5242  1.0452
 4482TIP3   OH213874   1.350   2.564   1.061 -0.0242  0.3199  0.0008
 4482TIP3    H113875   1.260   2.591   1.044  1.0344  3.4384 -0.8925
 4482TIP3    H213876   1.391   2.559   0.974  0.4189 -2.1784  0.2988
 4483TIP3   OH213877   0.962   6.094   2.997  0.2313  0.0976 -0.0193
 4483TIP3    H113878   0.917   6.111   3.079  0.8740  1.5188  0.0456
 4483TIP3    H213879   0.945   6.171   2.943  0.0659 -0.6879 -1.1248
 4484TIP3   OH213880   0.338   5.112   2.750  0.3367 -0.1376 -0.2878
 4484TIP3    H113881   0.390   5.035   2.774  1.1121  0.0410 -1.3604
 4484TIP3    H213882   0.264   5.111   2.811  0.5802 -1.4725 -0.0022
 4485TIP3   OH213883   3.370   1.695   3.843 -0.3792 -0.3614 -0.2201
 4485TIP3    H113884   3.363   1.783   3.807  0.7541  0.2951  1.1499
 4485TIP3    H213885   3.391   1.640   3.767 -1.1355  0.5323 -1.0845
 4486TIP3   OH213886   1.019   0.989   0.393 -0.3217 -0.5447 -0.0487
 4486TIP3    H113887   1.062   0.905   0.407  0.1895  0.1159  2.5263
 4486TIP3    H213888   0.926   0.971   0.406 -0.1178 -0.5308  1.5534
 4487TIP3   OH213889   0.011   1.366   4.696 -0.7835  0.1321  0.0878
 4487TIP3    H113890   0.024   1.412   4.779  1.7656  0.0050 -0.1981
 4487TIP3    H213891   0.026   1.432   4.629  1.7620 -0.7770 -0.3066
 4488TIP3   OH213892   3.373   0.525   2.121  0.6046 -0.2591 -0.0646
 4488TIP3    H113893   3.404   0.567   2.041 -1.6049  0.9812 -0.3094
 4488TIP3    H213894   3.311   0.458   2.090 -0.1512  0.1310  0.5986
 4489TIP3   OH213895   2.338   1.881   3.923 -0.1996  0.1918 -0.4667
 4489TIP3    H113896   2.279   1.931   3.866 -0.0555 -0.6564 -1.3619
 4489TIP3    H213897   2.284   1.810   3.958 -0.2567  0.6405  0.3743
 4490TIP3   OH213898   5.440   0.341   3.934 -0.2454  0.8067 -0.1935
 4490TIP3    H113899   5.486   0.300   3.862 -0.6307  0.4453 -0.2390
 4490TIP3    H213900   5.433   0.272   4.001 -2.1198  0.3450 -0.8161
 4491TIP3   OH213901   4.140   1.565   0.183 -0.4315 -0.3067 -0.3633
 4491TIP3    H113902   4.115   1.473   0.188 -3.0730  0.3403 -0.4789
 4491TIP3    H213903   4.149   1.593   0.274 -0.5989 -0.4424 -0.3050
 4492TIP3   OH213904   5.780   1.600   2.728  0.3857 -0.2096 -0.1677
 4492TIP3    H113905   5.699   1.623   2.775 -0.2423 -1.0208 -0.8446
 4492TIP3    H213906   5.820   1.685   2.707 -1.1762  0.2601 -1.3509
 4493TIP3   OH213907   5.585   5.576   2.422  0.2268  0.6768  0.7948
 4493TIP3    H113908   5.623   5.622   2.497  1.5622  1.8866 -0.5841
 4493TIP3    H213909   5.658   5.526   2.385  0.0843  1.6383 -0.8384
 4494TIP3   OH213910   1.585   1.036   5.206 -0.0764 -0.1506  0.3271
 4494TIP3    H113911   1.676   1.059   5.188  0.0043 -0.9468 -0.3549
 4494TIP3    H213912   1.563   1.081   5.287  1.0442 -0.2556  0.6934
 4495TIP3   OH213913   1.202   1.013   5.680  0.4148  0.2239  0.0656
 4495TIP3    H113914   1.108   0.998   5.676  0.5661 -0.6193 -0.4414
 4495TIP3    H213915   1.228   0.978   5.766 -0.0596  2.4179  1.1409
 4496TIP3   OH213916   3.470   6.063   5.743 -0.0943  0.1937 -0.0379
 4496TIP3    H113917   3.566   6.061   5.748  0.0833  1.7037 -2.1085
 4496TIP3    H213918   3.441   6.000   5.809  2.3254 -0.3721  0.5305
 4497TIP3   OH213919   5.928   1.159   4.659  1.0373  0.5346 -0.2263
 4497TIP3    H113920   5.906   1.134   4.748 -1.7341  0.8796 -0.7856
 4497TIP3    H213921   5.986   1.235   4.669 -0.9863  1.9316  1.2640
 4498TIP3   OH213922   2.804   0.600   5.502  0.0302  0.3436 -0.0475
 4498TIP3    H113923   2.859   0.528   5.534  0.1958  1.6819  2.8547
 4498TIP3    H213924   2.824   0.673   5.561 -0.9441  2.4544 -2.2469
 4499TIP3   OH213925   2.165   4.743   5.509  0.1459  0.2542 -0.1078
 4499TIP3    H113926   2.250   4.705   5.530 -1.2246 -1.3042  2.9873
 4499TIP3    H213927   2.117   4.741   5.591 -2.9748  0.9187 -1.8273
 4500TIP3   OH213928   1.679   1.698   0.502  0.1277  0.2786 -0.3056
 4500TIP3    H113929   1.736   1.712   0.577 -0.1275  1.6193 -0.3496
 4500TIP3    H213930   1.630   1.780   0.493 -2.7928 -1.3281  0.5427
 4501TIP3   OH213931   3.355   5.940   1.473  0.6586  0.1264  0.4471
 4501TIP3    H113932   3.447   5.920   1.456  0.8973  1.0296  0.6534
 4501TIP3    H213933   3.323   5.866   1.525  0.1792 -2.2235 -3.0282
 4502TIP3   OH213934   1.911   0.521   3.708  0.4995  0.7048  0.5432
 4502TIP3    H113935   1.981   0.467   3.671  0.4095  1.0450 -0.1335
 4502TIP3    H213936   1.840   0.513   3.645 -0.6641 -0.9345  2.0247
 4503TIP3   OH213937   2.023   4.180   4.297  0.7002  0.8247 -0.1637
 4503TIP3    H113938   2.058   4.092   4.285 -1.3406 -0.1404  0.7813
 4503TIP3    H213939   1.985   4.179   4.384  1.0973  2.8211  0.0576
 4504TIP3   OH213940   5.260   0.747   4.315  0.3740  0.2743  0.3611
 4504TIP3    H113941   5.327   0.689   4.352  2.3353  1.3612 -1.4231
 4504TIP3    H213942   5.244   0.713   4.227  0.8289  1.8322 -0.3390
 4505TIP3   OH213943   0.017   1.252   2.177 -1.2721  0.3089  0.3956
 4505TIP3    H113944   0.067   1.188   2.126 -1.4728  0.0568  0.5126
 4505TIP3    H213945   0.040   1.337   2.138  0.1904  0.3227  1.2484
 4506TIP3   OH213946   0.801   0.396   5.344 -0.3907  0.9122 -1.0109
 4506TIP3    H113947   0.747   0.385   5.265 -2.1614 -1.1958  0.4556
 4506TIP3    H213948   0.762   0.338   5.408  3.7532 -0.8304  0.0776
 4507TIP3   OH213949   6.015   2.801   5.768 -0.0863 -0.0473 -0.2402
 4507TIP3    H113950   5.992   2.893   5.749 -1.7723 -0.4975 -0.5140
 4507TIP3    H213951   5.933   2.763   5.801  1.1843 -0.8709  2.0863
 4508TIP3   OH213952   6.091   5.649   4.108 -0.4719  0.6014 -0.0605
 4508TIP3    H113953   6.129   5.737   4.109 -2.0080  1.2859  0.1981
 4508TIP3    H213954   6.028   5.650   4.036  1.2014 -1.0617 -1.6031
 4509TIP3   OH213955   1.147   1.848   2.154 -0.2235 -0.0791 -0.2654
 4509TIP3    H113956   1.079   1.799   2.109 -1.9154  0.7749  1.2774
 4509TIP3    H213957   1.113   1.860   2.243  2.0384  0.1832  0.5983
 4510TIP3   OH213958   1.224   3.288   2.120  0.1620  0.3983 -0.3225
 4510TIP3    H113959   1.205   3.268   2.212 -0.6873 -1.7084 -0.9434
 4510TIP3    H213960   1.143   3.267   2.074  1.5550 -1.4995 -1.9813
 4511TIP3   OH213961   1.754   1.920   2.003 -0.0052  0.2574  0.1987
 4511TIP3    H113962   1.794   1.931   1.917 -2.5890  1.2003 -0.9632
 4511TIP3    H213963   1.695   1.845   1.992 -1.7717  1.5552  0.5457
 4512TIP3   OH213964   5.812   5.448   4.174  0.2602 -0.2574  0.1157
 4512TIP3    H113965   5.787   5.484   4.258 -2.1383 -1.3088 -0.1098
 4512TIP3    H213966   5.834   5.524   4.120 -2.4673  0.7413  0.3481
 4513TIP3   OH213967   5.851   0.975   0.691 -0.1944  0.2599  0.3025
 4513TIP3    H113968   5.773   0.953   0.641  0.4123 -0.9623 -0.1160
 4513TIP3    H213969   5.897   1.040   0.638 -0.1543 -0.1555 -0.1683
 4514TIP3   OH213970   5.801   1.907   5.711  0.6100 -0.8369  0.0761
 4514TIP3    H113971   5.739   1.839   5.686 -0.1190  0.2812 -1.2156
 4514TIP3    H213972   5.882   1.884   5.666  0.1742 -0.4807 -0.8849
 4515TIP3   OH213973   0.095   1.881   4.413 -0.0123  0.3079  0.2995
 4515TIP3    H113974   0.123   1.886   4.321  1.7790  3.1411  0.9545
 4515TIP3    H213975   0.100   1.788   4.434 -0.4904 -0.3988 -2.4750
 4516TIP3   OH213976   2.131   3.246   4.399  0.0552  0.1185 -0.1155
 4516TIP3    H113977   2.163   3.269   4.486  1.1659 -0.4241 -0.3698
 4516TIP3    H213978   2.050   3.296   4.389 -0.9841 -1.1023  1.8934
 4517TIP3   OH213979   2.358   3.040   4.013  0.1160  0.1516 -0.7591
 4517TIP3    H113980   2.266   3.028   3.991  0.5537  0.4381 -2.7692
 4517TIP3    H213981   2.357   3.096   4.091 -1.3816  0.2716 -0.8585
 4518TIP3   OH213982   0.930   2.691   4.793  0.7181  0.0789  0.2267
 4518TIP3    H113983   1.012   2.658   4.756  0.2502 -1.1894  0.3150
 4518TIP3    H213984   0.879   2.720   4.718  0.3352 -1.2125 -0.0181
 4519TIP3   OH213985   5.522   2.582   3.192 -0.2510 -0.1771 -0.3980
 4519TIP3    H113986   5.613   2.601   3.166 -0.5824 -0.1914 -1.6052
 4519TIP3    H213987   5.496   2.509   3.137 -1.4841  0.7929 -1.1270
 4520TIP3   OH213988   3.107   2.330   4.880  0.4920  0.1316  0.4229
 4520TIP3    H113989   3.075   2.379   4.805  1.0251  0.3300  0.3213
 4520TIP3    H213990   3.056   2.248   4.879  1.0309 -0.2020 -0.5953
 4521TIP3   OH213991   3.001   0.925   4.437  0.1285  0.0611 -0.0854
 4521TIP3    H113992   3.034   0.861   4.500  0.0834 -0.0423 -0.1680
 4521TIP3    H213993   3.076   0.946   4.382 -0.1808 -0.8836 -0.8775
 4522TIP3   OH213994   5.577   0.950   2.535 -0.2987 -0.0695  0.2128
 4522TIP3    H113995   5.577   1.040   2.566  2.6014  0.1067 -0.1105
 4522TIP3    H213996   5.600   0.956   2.442  1.4267 -1.1978  0.5434
 4523TIP3   OH213997   3.631   2.541   4.382 -0.4979 -0.6544  0.2489
 4523TIP3    H113998   3.635   2.624   4.429  0.1913 -1.0566  0.8874
 4523TIP3    H213999   3.700   2.547   4.316 -0.2533 -0.8498  0.4899
 4524TIP3   OH214000   0.251   1.342   3.577  0.1639  0.0282 -0.5823
 4524TIP3    H114001   0.207   1.355   3.493  0.1616  1.3198 -0.3963
 4524TIP3    H214002   0.181   1.315   3.637 -0.1748  0.8895 -0.5742
 4525TIP3   OH214003   2.860   0.657   0.631 -0.4177 -0.0498 -0.2620
 4525TIP3    H114004   2.847   0.729   0.692 -1.8693 -1.1706  0.7971
 4525TIP3    H214005   2.901   0.697   0.555 -1.4507  1.9436  0.1876
 4526TIP3   OH214006   1.044   1.159   4.145  0.2822  0.5533 -0.3971
 4526TIP3    H114007   1.073   1.155   4.236  2.2771 -1.3558 -1.0806
 4526TIP3    H214008   1.076   1.242   4.113  0.9437  0.5306  0.1995
 4527TIP3   OH214009   0.850   5.149   2.995  0.8409 -0.1434 -0.1024
 4527TIP3    H114010   0.872   5.228   3.043 -0.7439  1.0468 -1.3061
 4527TIP3    H214011   0.815   5.179   2.911  0.6897 -2.1144 -0.7936
 4528TIP3   OH214012   3.412   3.068   0.823 -0.1757  0.0433  0.7158
 4528TIP3    H114013   3.451   2.981   0.822  1.2371  0.6288  2.5454
 4528TIP3    H214014   3.353   3.069   0.747  2.5674 -1.1982 -1.4949
 4529TIP3   OH214015   2.372   0.839   3.727  0.2438 -0.0651  0.1783
 4529TIP3    H114016   2.327   0.855   3.810  1.4023  0.1651  0.7718
 4529TIP3    H214017   2.459   0.878   3.739  1.1946 -1.9753 -0.3374
 4530TIP3   OH214018   3.094   5.366   3.105 -0.1578  0.1735 -0.5481
 4530TIP3    H114019   3.156   5.302   3.139 -0.8537  0.1140  0.6145
 4530TIP3    H214020   3.112   5.446   3.153 -0.2821  0.4495 -0.9541
 4531TIP3   OH214021   4.531   4.989   3.049 -0.5768 -0.0785 -0.1883
 4531TIP3    H114022   4.616   5.011   3.087 -1.1815  1.7313  0.1310
 4531TIP3    H214023   4.478   5.067   3.060 -1.5415 -0.3517 -2.5819
 4532TIP3   OH214024   0.966   5.829   5.542 -0.6825  0.5929 -0.6628
 4532TIP3    H114025   0.906   5.755   5.552 -0.6597  0.5602 -0.7612
 4532TIP3    H214026   1.033   5.796   5.482 -1.2810  1.0780 -1.6049
 4533TIP3   OH214027   4.147   1.227   3.226 -0.2036  0.0609  0.3817
 4533TIP3    H114028   4.159   1.313   3.267 -0.4291  0.5478 -0.5666
 4533TIP3    H214029   4.227   1.212   3.176 -0.1261 -0.3302  0.6140
 4534TIP3   OH214030   1.490   1.522   3.662 -0.4315 -0.1661  0.2748
 4534TIP3    H114031   1.423   1.590   3.662  1.0705  1.3862  2.0706
 4534TIP3    H214032   1.567   1.564   3.623  0.8303 -0.4489  2.3459
 4535TIP3   OH214033   2.088   4.587   1.238  0.2023  0.0260 -0.0431
 4535TIP3    H114034   2.005   4.613   1.277 -0.2560 -1.0164 -0.3152
 4535TIP3    H214035   2.105   4.654   1.171 -0.8549 -0.2352 -0.5878
 4536TIP3   OH214036   3.100   5.848   0.443 -0.1288  0.0717 -0.0014
 4536TIP3    H114037   3.181   5.798   0.452 -0.6780 -0.8476 -0.0433
 4536TIP3    H214038   3.073   5.866   0.533  0.2164  0.5451  0.0105
 4537TIP3   OH214039   0.353   2.037   5.154 -0.0113 -0.3601  0.3806
 4537TIP3    H114040   0.436   2.031   5.107 -0.9326 -0.6322 -1.2700
 4537TIP3    H214041   0.372   2.006   5.242  1.8868  0.6769  0.3426
 4538TIP3   OH214042   5.988   6.016   5.074  0.2636 -0.1953 -0.0405
 4538TIP3    H114043   5.981   5.922   5.059  3.0818 -0.2261 -1.3842
 4538TIP3    H214044   5.977   6.026   5.169 -1.2168 -1.7222 -0.0353
 4539TIP3   OH214045   2.245   6.066   5.048 -0.3540 -0.0147 -0.0021
 4539TIP3    H114046   2.325   6.012   5.047 -0.2778  0.0105  2.4041
 4539TIP3    H214047   2.269   6.142   5.101 -1.3099  1.0811 -1.1326
 4540TIP3   OH214048   3.646   1.342   5.133 -0.1048 -0.1222  0.1109
 4540TIP3    H114049   3.646   1.278   5.204  1.0517 -1.6352 -1.2318
 4540TIP3    H214050   3.583   1.309   5.070 -0.6976  0.9126  0.1587
 4541TIP3   OH214051   1.033   3.656   0.666 -0.0466 -0.2326  0.9300
 4541TIP3    H114052   1.077   3.738   0.644  1.6046 -0.9768  1.3227
 4541TIP3    H214053   0.974   3.640   0.593 -1.4474  1.9969  1.5001
 4542TIP3   OH214054   1.856   6.090   4.910 -0.3036 -1.3857  0.0008
 4542TIP3    H114055   1.825   6.175   4.941 -0.8041 -1.0227 -1.4406
 4542TIP3    H214056   1.788   6.061   4.849  1.8719 -0.8461 -2.7668
 4543TIP3   OH214057   3.389   2.950   5.108 -1.1380  0.3745 -0.2684
 4543TIP3    H114058   3.422   3.007   5.178  0.8165 -0.0296 -0.8195
 4543TIP3    H214059   3.400   2.862   5.143 -3.0879  0.2745  0.1272
 4544TIP3   OH214060   3.806   5.615   5.443 -0.1566 -0.5336  0.2065
 4544TIP3    H114061   3.751   5.692   5.453 -1.2836 -1.3971  0.8437
 4544TIP3    H214062   3.798   5.592   5.350 -1.0793 -0.7845  0.3370
 4545TIP3   OH214063   5.873   0.612   4.602 -0.3202 -0.2028  0.0860
 4545TIP3    H114064   5.934   0.675   4.639 -3.1159  3.2956 -0.9901
 4545TIP3    H214065   5.873   0.630   4.508 -2.4105 -0.6290 -0.0278
 4546TIP3   OH214066   0.441   3.229   4.315  0.7609  0.2804  0.5212
 4546TIP3    H114067   0.445   3.172   4.392 -1.4380 -0.3958  0.1781
 4546TIP3    H214068   0.428   3.169   4.241 -0.3729  1.1304  0.0155
 4547TIP3   OH214069   3.675   0.179   2.896  0.4617  0.2793  0.5939
 4547TIP3    H114070   3.648   0.110   2.835  1.1271 -0.4009  1.0516
 4547TIP3    H214071   3.652   0.260   2.852 -0.0356 -0.2291 -0.1029
 4548TIP3   OH214072   5.101   0.047   3.144  0.8645 -0.3987 -0.4458
 4548TIP3    H114073   5.062  -0.019   3.087  1.4021 -1.5274  0.4638
 4548TIP3    H214074   5.042   0.051   3.219 -0.6668  2.1838 -1.7457
 4549TIP3   OH214075   3.329   1.235   5.101  0.1502 -0.1651 -0.8178
 4549TIP3    H114076   3.412   1.234   5.054  0.8225 -0.3036  0.3648
 4549TIP3    H214077   3.274   1.173   5.053  1.0803 -0.8775 -0.9827
 4550TIP3   OH214078   3.270   0.926   3.603  0.3125  0.2981  0.1471
 4550TIP3    H114079   3.272   0.865   3.676 -1.4695 -1.3947 -1.1794
 4550TIP3    H214080   3.177   0.949   3.593  0.5156  0.3827 -1.6755
 4551TIP3   OH214081   1.582   0.241   4.881  0.1575 -0.2066 -0.1453
 4551TIP3    H114082   1.589   0.334   4.902 -2.2295  0.0047 -0.0826
 4551TIP3    H214083   1.642   0.228   4.808  1.7830  1.0040  0.9435
 4552TIP3   OH214084   3.463   0.692   3.293 -0.3047 -0.6112  0.3715
 4552TIP3    H114085   3.379   0.697   3.246 -0.6219 -0.9240  0.9012
 4552TIP3    H214086   3.441   0.650   3.376  0.5239 -1.3941  0.1943
 4553TIP3   OH214087   5.479   1.491   5.145  0.5133 -0.5634 -0.7696
 4553TIP3    H114088   5.385   1.472   5.149  0.5594 -0.7048 -0.2884
 4553TIP3    H214089   5.488   1.552   5.072 -0.0797  0.1589 -0.2514
 4554TIP3   OH214090   0.155   2.418   4.119  0.3427 -0.1466 -0.1287
 4554TIP3    H114091   0.234   2.419   4.064  1.0550  0.1477  0.8893
 4554TIP3    H214092   0.084   2.439   4.058  1.2790  1.4403 -0.7198
 4555TIP3   OH214093   1.544   0.427   2.951 -0.7188 -0.0128 -0.2056
 4555TIP3    H114094   1.508   0.515   2.937 -0.4427  0.2178  0.5344
 4555TIP3    H214095   1.604   0.437   3.025 -0.2482 -0.7074 -0.4919
 4556TIP3   OH214096   2.296   3.893   5.557  0.4091  0.4361 -0.1775
 4556TIP3    H114097   2.266   3.900   5.466 -1.6060  3.5230  0.6699
 4556TIP3    H214098   2.217   3.901   5.609  1.3109 -3.0406  1.9129
 4557TIP3   OH214099   5.013   1.080   3.299  0.3279 -0.1523 -0.1962
 4557TIP3    H114100   4.946   1.149   3.292  2.0530  1.6704  0.5567
 4557TIP3    H214101   5.057   1.098   3.382  0.7399 -2.2583  0.0520
 4558TIP3   OH214102   0.715   1.860   5.077  0.2077 -0.4044 -0.2941
 4558TIP3    H114103   0.713   1.783   5.021 -1.0996 -0.5843 -0.0312
 4558TIP3    H214104   0.720   1.825   5.166 -1.0873 -0.2315 -0.1339
 4559TIP3   OH214105   3.634   5.061   4.728  0.3874  0.5415 -0.2321
 4559TIP3    H114106   3.542   5.067   4.754  0.5104 -0.8248  0.5449
 4559TIP3    H214107   3.642   4.975   4.688  1.5286  0.3037  0.4937
 4560TIP3   OH214108   2.300   6.089   3.787  0.0838  0.1091 -0.5114
 4560TIP3    H114109   2.303   6.113   3.879  0.9609 -0.7855 -0.2983
 4560TIP3    H214110   2.300   5.993   3.787  2.2113  0.0641 -1.4724
 4561TIP3   OH214111   5.525   3.366   0.222 -0.6253 -0.2913 -0.1573
 4561TIP3    H114112   5.505   3.417   0.143 -0.2741  0.3287  0.1504
 4561TIP3    H214113   5.444   3.368   0.272 -0.7589 -0.4325 -0.3671
 4562TIP3   OH214114   3.385   2.233   4.848 -0.2054  0.6533 -0.4962
 4562TIP3    H114115   3.298   2.270   4.858 -1.7746 -3.0169  0.1744
 4562TIP3    H214116   3.417   2.223   4.938 -0.8176 -1.8464 -0.5336
 4563TIP3   OH214117   1.364   1.330   5.177 -0.1621 -0.1827 -0.5663
 4563TIP3    H114118   1.439   1.333   5.236  0.3239 -1.4047 -1.1160
 4563TIP3    H214119   1.314   1.254   5.206 -0.1905 -0.4904 -1.4017
 4564TIP3   OH214120   3.118   1.647   5.667  0.4048 -0.1120 -0.1558
 4564TIP3    H114121   3.186   1.619   5.606  0.0304 -0.1450 -0.5641
 4564TIP3    H214122   3.059   1.571   5.673 -0.9416  0.7724 -1.7202
 4565TIP3   OH214123   2.965   2.145   5.687  0.1401  0.0333  0.2265
 4565TIP3    H114124   2.953   2.056   5.653  0.2228 -0.9713  2.7013
 4565TIP3    H214125   3.057   2.149   5.712  0.0115  0.6176  0.6108
 4566TIP3   OH214126   2.399   2.799   4.723 -0.5911 -0.4029 -0.0584
 4566TIP3    H114127   2.402   2.741   4.799 -0.7752  0.8455  0.9055
 4566TIP3    H214128   2.313   2.783   4.685 -1.8552  1.4343  1.9561
 4567TIP3   OH214129   1.169   0.462   4.450  0.6950 -0.0198 -0.3273
 4567TIP3    H114130   1.155   0.370   4.471  0.8576 -0.1606 -0.8205
 4567TIP3    H214131   1.095   0.507   4.490  0.9316 -0.2919  0.4284
 4568TIP3   OH214132   4.668   0.357   2.761 -0.2084  0.0734  0.4912
 4568TIP3    H114133   4.624   0.423   2.815 -1.1459  0.3048 -0.5451
 4568TIP3    H214134   4.701   0.406   2.686 -1.0898 -0.6489 -0.3856
 4569TIP3   OH214135   4.138   1.713   4.936 -0.1706 -0.1173  0.0185
 4569TIP3    H114136   4.071   1.772   4.971  1.4228  1.2858  0.7490
 4569TIP3    H214137   4.212   1.723   4.995  1.0566 -0.9223 -1.3506
 4570TIP3   OH214138   3.059   1.416   5.199 -0.1030 -0.0964 -0.4575
 4570TIP3    H114139   3.053   1.321   5.212 -0.4915  0.1532  1.2415
 4570TIP3    H214140   3.153   1.434   5.197 -0.0260 -0.5066 -0.8044
 4571TIP3   OH214141   2.840   1.889   5.907 -0.1988  0.7831  0.3544
 4571TIP3    H114142   2.887   1.806   5.910 -1.4135 -0.2018 -4.7138
 4571TIP3    H214143   2.761   1.874   5.958 -0.3113 -1.1193 -0.3563
 4572TIP3   OH214144   0.648   0.602   3.607 -0.1142  0.3868 -0.1325
 4572TIP3    H114145   0.633   0.660   3.682 -0.0634 -1.1379  1.0744
 4572TIP3    H214146   0.660   0.515   3.646 -1.4970 -0.6645 -2.0068
 4573TIP3   OH214147   2.526   5.159   5.867  0.4022  0.0074 -0.0610
 4573TIP3    H114148   2.467   5.101   5.819  2.7320 -0.6762 -2.2335
 4573TIP3    H214149   2.533   5.119   5.954 -0.5384 -1.1536 -0.5076
 4574TIP3   OH214150   0.887   5.595   3.436  0.1872 -0.4290  0.1601
 4574TIP3    H114151   0.962   5.615   3.380 -0.7438 -0.8690 -1.2767
 4574TIP3    H214152   0.904   5.642   3.517  0.6774  1.7174 -1.1519
 4575TIP3   OH214153   3.570   1.464   3.033 -0.3804 -0.6728 -0.0267
 4575TIP3    H114154   3.558   1.370   3.042 -1.2917 -0.4505  1.2175
 4575TIP3    H214155   3.646   1.484   3.087 -0.3252 -0.6657 -0.1077
 4576TIP3   OH214156   3.757   1.710   4.726  0.3522 -0.4292  0.7010
 4576TIP3    H114157   3.849   1.714   4.698 -0.4806  0.8040 -2.0051
 4576TIP3    H214158   3.734   1.801   4.745 -0.9469 -0.4041 -0.8805
 4577TIP3   OH214159   4.543   5.139   5.956  0.5940  0.0573 -0.3530
 4577TIP3    H114160   4.570   5.064   5.903  1.2185  0.8426 -1.1657
 4577TIP3    H214161   4.499   5.197   5.894 -1.3373 -0.3456  0.5877
 4578TIP3   OH214162   5.803   0.924   4.515 -0.1891  0.2161 -0.2284
 4578TIP3    H114163   5.713   0.926   4.548 -0.0879 -1.1769  0.1814
 4578TIP3    H214164   5.826   1.016   4.502 -1.1685  0.6601  1.0438
 4579TIP3   OH214165   1.391   1.023   4.981 -0.1434  0.3833  0.5302
 4579TIP3    H114166   1.437   1.034   5.064 -0.9759  3.0356  0.6771
 4579TIP3    H214167   1.434   1.084   4.921 -1.1334  0.2504 -0.3272
 4580TIP3   OH214168   1.749   2.262   4.725  0.5175 -0.2375  0.0761
 4580TIP3    H114169   1.769   2.181   4.771 -0.3560  0.0867  1.0530
 4580TIP3    H214170   1.789   2.331   4.779 -0.0582  0.1054  0.0692
 4581TIP3   OH214171   3.366   1.971   4.396  0.5317  0.0069  0.1849
 4581TIP3    H114172   3.395   2.021   4.472  2.3101  0.4229 -0.7529
 4581TIP3    H214173   3.421   1.892   4.397  0.4835 -0.0371 -0.6110
 4582TIP3   OH214174   3.774   1.467   3.233 -0.1962  0.4127 -0.5231
 4582TIP3    H114175   3.749   1.375   3.231 -2.2167  0.9538 -2.1705
 4582TIP3    H214176   3.853   1.470   3.288 -0.2962 -2.2258 -0.1917
 4583TIP3   OH214177   4.187   0.946   3.603 -0.5845  0.1433 -0.5038
 4583TIP3    H114178   4.243   0.990   3.539 -2.2352  0.5752 -1.6894
 4583TIP3    H214179   4.110   1.003   3.610  0.2193  0.8699  3.0159
 4584TIP3   OH214180   0.155   5.412   3.172  0.1493  0.4109  0.4804
 4584TIP3    H114181   0.216   5.466   3.122  1.8979 -1.0656  0.9588
 4584TIP3    H214182   0.107   5.474   3.227  1.2670  1.5983  0.1345
 4585TIP3   OH214183   2.716   5.784   5.047 -0.3567 -0.3597 -0.7926
 4585TIP3    H114184   2.791   5.730   5.023 -0.3905 -0.5588 -0.4508
 4585TIP3    H214185   2.650   5.721   5.077  0.7313  0.0682  2.6781
 4586TIP3   OH214186   4.454   3.228   5.294 -0.1838 -0.3231 -0.5871
 4586TIP3    H114187   4.456   3.323   5.293  0.4908 -0.2850  1.7358
 4586TIP3    H214188   4.506   3.203   5.371 -1.5395 -2.5192 -0.3250
 4587TIP3   OH214189   3.036   4.621   4.865  0.2095 -0.7363 -0.1980
 4587TIP3    H114190   2.966   4.647   4.805  0.8997 -0.2094 -0.7896
 4587TIP3    H214191   3.035   4.688   4.933  0.3569 -0.5421 -0.3864
 4588TIP3   OH214192   1.654   5.316   4.116  0.7838  0.0106  0.0505
 4588TIP3    H114193   1.626   5.405   4.140 -1.0028 -1.2234  2.7300
 4588TIP3    H214194   1.605   5.296   4.036  1.1666  1.3720 -0.5507
 4589TIP3   OH214195   3.054   1.140   3.810 -0.2418  0.0007 -0.3825
 4589TIP3    H114196   3.132   1.177   3.853 -0.8417  0.6677  0.1477
 4589TIP3    H214197   3.048   1.051   3.845  0.6982 -0.3025 -0.9834
 4590TIP3   OH214198   4.751   1.858   0.177  0.3428  0.4357  0.0571
 4590TIP3    H114199   4.827   1.903   0.141  0.4609  1.2533  1.2900
 4590TIP3    H214200   4.765   1.860   0.272  0.1839 -1.9050  0.1573
 4591TIP3   OH214201   2.455   4.689   5.564 -0.1346 -0.9229 -0.3977
 4591TIP3    H114202   2.536   4.732   5.535 -0.0374 -1.9152 -1.6449
 4591TIP3    H214203   2.440   4.722   5.652  2.5548 -2.0452  0.5028
 4592TIP3   OH214204   4.385   2.630   2.052 -0.0729 -0.8266  0.0748
 4592TIP3    H114205   4.452   2.584   2.101 -1.2779 -1.0360  1.5669
 4592TIP3    H214206   4.413   2.721   2.051 -0.1549 -0.7878  1.3512
 4593TIP3   OH214207   3.330   0.482   5.334  0.7655  0.5758 -0.6615
 4593TIP3    H114208   3.414   0.526   5.352  2.4304 -1.9306 -2.1111
 4593TIP3    H214209   3.352   0.411   5.274 -2.4552 -0.0374 -1.1975
 4594TIP3   OH214210   5.840   1.334   5.939 -0.4873 -0.6306 -0.3365
 4594TIP3    H114211   5.823   1.406   6.001 -1.3121 -0.1733 -1.0830
 4594TIP3    H214212   5.927   1.353   5.904 -0.0409 -0.8525  0.6213
 4595TIP3   OH214213   3.562   5.896   3.787 -0.3112 -0.0160 -0.2143
 4595TIP3    H114214   3.632   5.857   3.839  0.1056 -0.2005 -0.9099
 4595TIP3    H214215   3.509   5.822   3.758 -1.0851  0.1634  0.7236
 4596TIP3   OH214216   2.290   4.131   0.052 -0.4296  0.4427 -0.2847
 4596TIP3    H114217   2.244   4.109   0.134 -1.5598 -0.2942 -1.1002
 4596TIP3    H214218   2.239   4.204   0.016  0.2039  0.9185 -0.2163
 4597TIP3   OH214219   4.437   1.240   1.958  0.5894  0.2688 -0.1327
 4597TIP3    H114220   4.498   1.292   2.010  0.2846  0.7446 -0.2501
 4597TIP3    H214221   4.402   1.176   2.020  1.4561 -0.2274 -0.1429
 4598TIP3   OH214222   3.110   4.984   3.008  0.1449 -0.0798 -0.3119
 4598TIP3    H114223   3.060   5.042   3.065  0.6422  0.1523 -0.1007
 4598TIP3    H214224   3.202   5.000   3.033  0.2045 -2.0860  0.8328
 4599TIP3   OH214225   3.812   5.677   3.445 -0.1423 -0.6556 -0.4396
 4599TIP3    H114226   3.876   5.661   3.376  1.5739 -0.7954  1.1528
 4599TIP3    H214227   3.729   5.650   3.408  0.7020 -0.3639 -2.5841
 4600TIP3   OH214228   4.920   1.350   0.804  0.8083 -0.4016  0.1868
 4600TIP3    H114229   4.910   1.266   0.759 -2.9084  2.8258 -5.6751
 4600TIP3    H214230   4.983   1.399   0.752 -1.5301  2.5150 -0.0486
 4601TIP3   OH214231   5.053   2.628   4.031 -0.0959 -0.6305  0.0090
 4601TIP3    H114232   5.057   2.558   3.967  2.3592 -0.5311  0.0256
 4601TIP3    H214233   5.109   2.599   4.103  0.3445  0.9948  0.3568
 4602TIP3   OH214234   4.167   0.817   3.153  0.4807  0.0796 -0.0464
 4602TIP3    H114235   4.179   0.782   3.065 -0.2775  2.1938 -1.0155
 4602TIP3    H214236   4.231   0.769   3.206  1.4613 -0.7073 -1.8734
 4603TIP3   OH214237   1.563   5.811   2.328 -0.5788 -0.6431 -0.1779
 4603TIP3    H114238   1.617   5.889   2.314 -1.9487  0.5065  0.8544
 4603TIP3    H214239   1.579   5.787   2.419 -0.9533 -0.9604 -0.1947
 4604TIP3   OH214240   0.497   0.932   4.504 -0.6078  0.1488  0.0294
 4604TIP3    H114241   0.583   0.972   4.488 -0.1096 -0.6198  0.6980
 4604TIP3    H214242   0.512   0.875   4.580 -1.4390 -0.8362 -0.5418
 4605TIP3   OH214243   4.058   1.177   4.301  0.5477 -0.6126 -0.2613
 4605TIP3    H114244   4.066   1.086   4.330  1.0754  0.7210  4.2359
 4605TIP3    H214245   3.973   1.205   4.336  0.4106  0.6270 -1.5682
 4606TIP3   OH214246   0.974   2.569   0.010 -0.7110 -0.3273  0.1452
 4606TIP3    H114247   0.990   2.481  -0.026 -1.8485 -0.8942  0.9772
 4606TIP3    H214248   0.891   2.560   0.056 -0.1446  0.8566  1.3952
 4607TIP3   OH214249   1.283   0.704   4.609 -0.3178  0.2947 -0.5189
 4607TIP3    H114250   1.290   0.631   4.546 -1.8912 -0.3679  0.0561
 4607TIP3    H214251   1.197   0.743   4.590 -1.0154 -0.2161  1.5341
 4608TIP3   OH214252   4.368   2.137   1.011 -0.0488  0.2655 -0.6370
 4608TIP3    H114253   4.447   2.163   1.060 -0.6550  0.4427  0.2529
 4608TIP3    H214254   4.370   2.192   0.933  0.3218  0.7851 -0.2649
 4609TIP3   OH214255   4.364   2.124   3.812  0.2892  0.7958 -0.6885
 4609TIP3    H114256   4.368   2.047   3.755  1.9725 -0.6355  1.2586
 4609TIP3    H214257   4.449   2.167   3.800  0.5481  0.6383  0.4881
 4610TIP3   OH214258   2.740   0.514   6.040  0.1744 -0.3602 -0.2611
 4610TIP3    H114259   2.701   0.602   6.037  0.0271 -0.3946  0.5246
 4610TIP3    H214260   2.702   0.468   5.965 -0.3605 -0.0058 -0.2074
 4611TIP3   OH214261   2.552   1.425   5.466  0.0863 -0.3622 -0.7232
 4611TIP3    H114262   2.483   1.488   5.444  0.6512 -0.6263 -3.3299
 4611TIP3    H214263   2.513   1.339   5.447  0.5862 -0.6098 -0.6397
 4612TIP3   OH214264   1.390   5.748   4.097 -0.4842 -0.0818  0.0492
 4612TIP3    H114265   1.299   5.772   4.076 -0.8103 -0.6384  0.8063
 4612TIP3    H214266   1.404   5.665   4.053 -0.8410 -0.7514  1.1914
 4613TIP3   OH214267   1.124   3.239   5.425 -0.0493 -0.0889  0.7215
 4613TIP3    H114268   1.073   3.163   5.452 -0.8651  0.0824 -0.3188
 4613TIP3    H214269   1.059   3.309   5.414  0.1540 -0.3372 -2.3758
 4614TIP3   OH214270   3.006   1.370   5.804  0.8656  0.6015 -0.5078
 4614TIP3    H114271   3.068   1.357   5.733  1.6193 -0.3417  0.2992
 4614TIP3    H214272   3.032   1.305   5.871 -0.7217  0.4585  0.0037
 4615TIP3   OH214273   2.401   3.128   4.295  0.0172 -0.0017  0.6178
 4615TIP3    H114274   2.324   3.184   4.302 -0.1753 -0.4374  2.2023
 4615TIP3    H214275   2.472   3.178   4.337  0.7038  0.5733 -1.2066
 4616TIP3   OH214276   1.496   1.338   5.692 -0.6097 -0.2018  0.3808
 4616TIP3    H114277   1.548   1.399   5.640 -1.6773 -0.4941 -1.0648
 4616TIP3    H214278   1.485   1.381   5.777 -0.2917  1.0592 -0.2112
 4617TIP3   OH214279   3.051   0.664   4.171  0.1784  0.4185  0.0970
 4617TIP3    H114280   2.959   0.652   4.194 -0.0156  0.6842 -0.5243
 4617TIP3    H214281   3.095   0.677   4.255 -0.0527 -1.6012  0.5732
 4618TIP3   OH214282   3.762   1.945   4.521  0.4282  0.2284 -0.4279
 4618TIP3    H114283   3.686   1.902   4.480  0.2616 -0.2266  0.3310
 4618TIP3    H214284   3.747   2.038   4.509 -0.8970  0.1896  0.8111
 4619TIP3   OH214285   2.860   0.739   2.212  0.2394  0.2945  0.4960
 4619TIP3    H114286   2.867   0.645   2.191  1.3052  0.7068 -1.0533
 4619TIP3    H214287   2.797   0.773   2.148  0.8788  0.8887  0.1784
 4620TIP3   OH214288   2.600   0.633   5.309 -0.3886  0.5261 -0.1588
 4620TIP3    H114289   2.623   0.707   5.253  0.3247  0.5874  0.2067
 4620TIP3    H214290   2.672   0.627   5.372  0.3429 -1.4387 -1.1357
 4621TIP3   OH214291   4.237   1.077   2.632 -0.2341  0.0441 -0.4101
 4621TIP3    H114292   4.163   1.128   2.664 -0.8670 -1.9157  1.3256
 4621TIP3    H214293   4.210   1.047   2.545 -0.6341  1.0021 -0.6233
 4622TIP3   OH214294   2.562   2.002   0.229  0.4464 -0.3368 -0.0528
 4622TIP3    H114295   2.485   2.057   0.215  0.6786 -0.2371 -0.9732
 4622TIP3    H214296   2.552   1.967   0.318 -1.0856 -0.9903 -0.4735
 4623TIP3   OH214297   3.467   0.228   3.681  0.5701 -0.1879  0.1519
 4623TIP3    H114298   3.553   0.187   3.684  0.3427 -0.7050 -0.3856
 4623TIP3    H214299   3.424   0.199   3.762  1.2825  0.9351  0.9508
 4624TIP3   OH214300   0.525   0.745   4.725 -0.3106  0.1192  0.5387
 4624TIP3    H114301   0.620   0.757   4.722 -0.3801  0.5828  0.1555
 4624TIP3    H214302   0.513   0.650   4.724  0.1772  0.0405  1.5499
 4625TIP3   OH214303   1.641   1.263   4.651  0.2439  0.7659 -0.3422
 4625TIP3    H114304   1.705   1.211   4.699 -0.0872  1.1378  0.5126
 4625TIP3    H214305   1.614   1.207   4.577  0.4524  0.0358  0.1335
 4626TIP3   OH214306   3.353   0.128   0.180  0.3370 -0.0515 -0.0264
 4626TIP3    H114307   3.293   0.069   0.226 -0.8698  0.3314 -1.0828
 4626TIP3    H214308   3.334   0.114   0.087  1.6467  0.3315 -0.3674
 4627TIP3   OH214309   3.560   2.417   5.362 -0.3727 -0.8737  0.7724
 4627TIP3    H114310   3.649   2.403   5.330 -0.3290 -1.0840  0.9826
 4627TIP3    H214311   3.505   2.409   5.285 -0.2343 -1.0063  0.6854
 4628TIP3   OH214312   1.523   1.846   5.533 -0.1190  0.0857  0.4444
 4628TIP3    H114313   1.517   1.756   5.564 -0.9145 -0.1077 -0.2625
 4628TIP3    H214314   1.435   1.881   5.541 -0.3345  0.0649 -1.4747
 4629TIP3   OH214315   3.407   1.448   3.703  0.5240 -0.5726  0.1029
 4629TIP3    H114316   3.496   1.453   3.736  1.1326 -1.8784 -1.2320
 4629TIP3    H214317   3.397   1.357   3.675 -1.7431 -0.8348  1.6149
 4630TIP3   OH214318   2.894   1.566   0.670  0.4058  1.0968  0.2195
 4630TIP3    H114319   2.883   1.517   0.752  0.3334  0.2342 -0.3072
 4630TIP3    H214320   2.988   1.582   0.665  1.0449 -2.7063 -1.7260
 4631TIP3   OH214321   3.233   1.526   3.467 -0.0894  0.1604  0.1334
 4631TIP3    H114322   3.267   1.494   3.550  0.3104 -1.0488 -0.4869
 4631TIP3    H214323   3.301   1.503   3.403 -0.7839  0.2986 -0.6649
 4632TIP3   OH214324   2.749   3.422   3.406 -0.3803 -0.0912 -0.0405
 4632TIP3    H114325   2.654   3.420   3.391 -0.4581  0.5780  0.3486
 4632TIP3    H214326   2.758   3.442   3.499  0.1290 -1.9448  0.3459
 4633TIP3   OH214327   4.029   1.443   3.417 -0.3366  0.1366 -0.2977
 4633TIP3    H114328   3.977   1.439   3.498 -0.0446  1.1921 -0.0545
 4633TIP3    H214329   4.021   1.534   3.388  0.1649 -0.0643 -1.0625
 4634TIP3   OH214330   3.598   1.453   5.523  0.2329 -0.3453 -0.3184
 4634TIP3    H114331   3.574   1.363   5.543 -0.7084 -0.2615 -1.0740
 4634TIP3    H214332   3.637   1.449   5.435 -0.8188  0.1493 -0.8087
 4635TIP3   OH214333   1.551   1.101   5.491  0.4720 -0.2325 -0.0530
 4635TIP3    H114334   1.590   1.090   5.578 -0.2215  0.0193  0.3001
 4635TIP3    H214335   1.503   1.019   5.477 -0.6519  0.3158  0.4605
 4636TIP3   OH214336   0.549   5.818   5.096 -0.7188 -0.1379 -0.1680
 4636TIP3    H114337   0.500   5.771   5.028 -1.0181 -0.5434  0.3206
 4636TIP3    H214338   0.623   5.761   5.116 -0.3169  0.2474 -0.5559
 4637TIP3   OH214339   1.944   1.759   4.147 -0.6240  0.4735  0.4139
 4637TIP3    H114340   1.930   1.692   4.080  1.6517  0.8658 -0.5096
 4637TIP3    H214341   1.954   1.710   4.228  2.6738 -0.5218 -0.4914
 4638TIP3   OH214342   3.808   2.464   5.190 -0.0889 -0.1610 -0.4649
 4638TIP3    H114343   3.765   2.549   5.179  0.2988  0.1297  0.1912
 4638TIP3    H214344   3.895   2.476   5.150  0.8090  0.4724  1.5928
 4639TIP3   OH214345   2.232   4.881   2.434  0.2837  0.2420 -0.0257
 4639TIP3    H114346   2.290   4.838   2.372 -0.4260  0.4163 -0.8144
 4639TIP3    H214347   2.238   4.974   2.412 -1.0000  0.1679 -0.7117
 4640TIP3   OH214348   3.149   2.430   4.099 -0.1017  0.6964  0.4620
 4640TIP3    H114349   3.184   2.422   4.188 -0.9055 -0.3524  0.6889
 4640TIP3    H214350   3.188   2.511   4.065  0.4343  0.9478  1.6627
 4641TIP3   OH214351   3.197   1.831   5.885  0.3780 -0.1555  0.0904
 4641TIP3    H114352   3.116   1.821   5.937  0.2821  0.9567  0.1543
 4641TIP3    H214353   3.203   1.749   5.836 -0.5311 -0.4508  0.4512
 4642TIP3   OH214354   2.025   2.858   1.108  0.8005  0.6126  0.5996
 4642TIP3    H114355   2.029   2.827   1.198  1.4375  0.6350  0.5790
 4642TIP3    H214356   2.112   2.841   1.072  0.2196 -0.4496 -0.3560
 4643TIP3   OH214357   2.943   5.461   2.689  0.4770  0.0640  0.4458
 4643TIP3    H114358   2.929   5.556   2.686  0.7423  0.0548 -1.4212
 4643TIP3    H214359   2.875   5.428   2.748 -0.7315  1.2058 -0.2907
 4644TIP3   OH214360   3.669   0.689   0.016  0.0442 -0.2244  0.0548
 4644TIP3    H114361   3.612   0.615  -0.007  0.9122 -0.8601 -0.0698
 4644TIP3    H214362   3.734   0.651   0.075  2.4682 -0.3161 -2.5857
 4645TIP3   OH214363   5.792   2.118   0.100 -0.0907  0.0489 -0.4187
 4645TIP3    H114364   5.702   2.152   0.096  0.4716  1.6572  0.2076
 4645TIP3    H214365   5.800   2.064   0.022 -1.3646  0.5207 -0.8935
 4646TIP3   OH214366   2.132   0.982   2.148 -0.2472  0.0051  0.2481
 4646TIP3    H114367   2.081   0.997   2.068 -1.2543 -0.5943  0.7746
 4646TIP3    H214368   2.086   1.032   2.215  0.9046  0.9358  0.3469
 4647TIP3   OH214369   1.600   1.470   3.162 -0.3260 -0.0344  0.6468
 4647TIP3    H114370   1.624   1.562   3.176 -0.8067  0.0346  1.0260
 4647TIP3    H214371   1.579   1.465   3.069  1.4362 -0.1607  0.2326
 4648TIP3   OH214372   2.715   2.442   4.742  0.0911  0.3286  0.2657
 4648TIP3    H114373   2.722   2.473   4.652 -0.4613 -0.8314 -0.1893
 4648TIP3    H214374   2.800   2.464   4.782  0.1680  1.2577 -0.3917
 4649TIP3   OH214375   4.864   2.368   4.593  0.1441  0.8065 -0.1246
 4649TIP3    H114376   4.784   2.324   4.623  1.1979 -0.0599  1.5122
 4649TIP3    H214377   4.910   2.301   4.542  0.3283  0.9568 -0.1558
 4650TIP3   OH214378   3.682   1.974   4.869 -0.0673  0.1731 -0.2146
 4650TIP3    H114379   3.624   1.971   4.793  0.0994 -1.5440 -0.2957
 4650TIP3    H214380   3.756   2.028   4.841 -1.1073  1.5213 -0.4528
 4651TIP3   OH214381   0.814   2.917   5.270  0.2331 -0.2489 -0.2000
 4651TIP3    H114382   0.814   2.934   5.176  0.4285  0.3706 -0.0966
 4651TIP3    H214383   0.776   2.830   5.279  0.9330 -0.6289 -0.9055
 4652TIP3   OH214384   3.869   0.668   3.665  0.0482  0.0396 -0.2671
 4652TIP3    H114385   3.950   0.677   3.616 -0.7333  0.5474 -1.4831
 4652TIP3    H214386   3.816   0.607   3.614 -1.2576  1.5084 -0.7219
 4653TIP3   OH214387   3.371   1.987   5.313 -0.4006  0.0335 -0.1951
 4653TIP3    H114388   3.384   1.892   5.326 -1.3817 -0.1334 -0.4352
 4653TIP3    H214389   3.453   2.016   5.274 -0.4798 -0.9089 -1.0953
 4654TIP3   OH214390   1.186   1.825   5.282  0.0649  0.1351 -0.0061
 4654TIP3    H114391   1.245   1.874   5.223 -0.8427 -0.4147 -1.3779
 4654TIP3    H214392   1.188   1.736   5.249  0.2330 -0.3719  1.3567
 4655TIP3   OH214393   5.762   0.959   0.170  0.6060  1.0029  0.4910
 4655TIP3    H114394   5.789   1.022   0.104  0.0267  0.2301 -0.4952
 4655TIP3    H214395   5.669   0.978   0.185 -0.6928 -2.2012 -2.8081
 4656TIP3   OH214396   4.159   0.670   4.118  0.1305  0.1155 -0.0422
 4656TIP3    H114397   4.172   0.757   4.080  0.5673  1.2357  2.5858
 4656TIP3    H214398   4.201   0.611   4.056  1.7061  1.9731 -0.8036
 4657TIP3   OH214399   0.565   2.069   4.960 -0.1676 -0.1662 -0.4421
 4657TIP3    H114400   0.588   2.131   5.029 -0.1556 -2.3149  1.5846
 4657TIP3    H214401   0.627   1.996   4.972  2.0654  0.8106 -4.8754
 4658TIP3   OH214402   2.455   0.019   3.388 -0.7271  0.1145 -0.4316
 4658TIP3    H114403   2.476  -0.072   3.405 -0.5300 -0.1543 -2.0207
 4658TIP3    H214404   2.526   0.050   3.331 -0.0237  1.6715  1.2341
 4659TIP3   OH214405   2.767   1.046   4.983 -0.4477 -0.0239  0.1594
 4659TIP3    H114406   2.797   1.053   4.892 -1.2502  0.0204 -0.1080
 4659TIP3    H214407   2.721   1.128   5.000 -0.4331 -0.0953  0.5525
 4660TIP3   OH214408   4.760   4.973   0.577  0.1544  0.1713  0.2210
 4660TIP3    H114409   4.746   5.042   0.641 -0.3440  2.4417 -2.2731
 4660TIP3    H214410   4.843   4.995   0.536  0.1035 -0.8537 -0.4490
 4661TIP3   OH214411   4.123   2.218   3.831  0.3189 -0.6836  0.0937
 4661TIP3    H114412   4.071   2.138   3.840  1.5737 -1.6585 -1.0276
 4661TIP3    H214413   4.213   2.186   3.822  1.1306  0.9567  1.9965
 4662TIP3   OH214414   1.825   5.741   0.936  0.0224 -0.5284 -0.8596
 4662TIP3    H114415   1.767   5.675   0.972 -0.8598  1.2856  1.1503
 4662TIP3    H214416   1.772   5.821   0.934  1.7286  0.6265 -1.1844
 4663TIP3   OH214417   2.488   5.442   5.885  0.3004 -0.0462 -0.1545
 4663TIP3    H114418   2.566   5.468   5.935  0.4025 -0.1534 -0.2578
 4663TIP3    H214419   2.508   5.354   5.853 -0.3326 -0.5403  0.7910
 4664TIP3   OH214420   2.638   2.377   0.779  0.4084  0.1136  0.0342
 4664TIP3    H114421   2.699   2.304   0.787 -0.1318 -0.3807 -0.2384
 4664TIP3    H214422   2.675   2.432   0.710 -0.3352 -1.1069 -1.3911
 4665TIP3   OH214423   0.949   5.918   5.104  0.1267 -0.3955 -0.4634
 4665TIP3    H114424   0.924   5.827   5.088  1.5019 -0.5012 -2.0967
 4665TIP3    H214425   1.044   5.919   5.101  0.1947  0.8545  1.0342
 4666TIP3   OH214426   2.892   5.187   0.578 -0.0247  0.5954 -0.1229
 4666TIP3    H114427   2.850   5.104   0.556  0.7080 -0.2620  1.6668
 4666TIP3    H214428   2.985   5.172   0.566  0.0681  1.3506 -0.3952
 4667TIP3   OH214429   1.942   4.681   5.978  0.3266  0.0073  0.5932
 4667TIP3    H114430   1.869   4.730   6.016 -0.2105 -0.6862  0.4575
 4667TIP3    H214431   1.916   4.589   5.984  2.1440 -0.4176  2.5594
 4668TIP3   OH214432   2.448   0.872   5.035  0.3716 -0.1919  0.5100
 4668TIP3    H114433   2.408   0.787   5.022 -1.3356  0.6798 -0.0413
 4668TIP3    H214434   2.537   0.852   5.066  0.3448 -2.1600 -0.5969
 4669TIP3   OH214435   2.345   2.276   3.887  0.2444 -0.3126 -0.2474
 4669TIP3    H114436   2.415   2.217   3.857 -0.3989 -0.6923 -1.0361
 4669TIP3    H214437   2.297   2.299   3.807 -0.4649  0.0334  0.2682
 4670TIP3   OH214438   4.178   3.142   5.470 -0.2792 -0.1346 -0.1710
 4670TIP3    H114439   4.254   3.085   5.458 -1.5652 -1.9234 -0.0308
 4670TIP3    H214440   4.140   3.151   5.383 -0.4754 -0.0580 -0.0783
 4671TIP3   OH214441   2.932   4.150   0.186  0.2059 -0.7765 -0.5925
 4671TIP3    H114442   2.874   4.221   0.214  1.1688 -0.0384 -0.4593
 4671TIP3    H214443   2.902   4.074   0.236  1.0895  0.2261  1.5398
 4672TIP3   OH214444   3.689   2.126   3.994 -0.3158 -0.3162 -0.0936
 4672TIP3    H114445   3.668   2.104   3.904 -0.8400 -0.2105  0.0005
 4672TIP3    H214446   3.634   2.068   4.047  2.0528 -2.4179  0.1935
 4673TIP3   OH214447   2.635   1.898   5.635  0.2526 -0.3706  0.3847
 4673TIP3    H114448   2.681   1.864   5.558 -0.2635  0.1168 -0.1450
 4673TIP3    H214449   2.704   1.929   5.693  0.5520  1.1610 -0.7899
 4674TIP3   OH214450   2.223   1.457   4.873 -0.1451 -0.3682 -0.0364
 4674TIP3    H114451   2.180   1.528   4.825  1.5493 -0.3942 -1.6447
 4674TIP3    H214452   2.307   1.494   4.901 -0.7368 -0.6435  2.1799
 4675TIP3   OH214453   0.596   2.813   1.377 -0.2334  0.3471  0.6756
 4675TIP3    H114454   0.528   2.745   1.373 -1.1315  1.3038 -0.8276
 4675TIP3    H214455   0.677   2.764   1.392 -0.9961 -0.9842  0.5654
 4676TIP3   OH214456   2.397   0.446   3.628 -0.4548 -0.2061  0.5811
 4676TIP3    H114457   2.340   0.417   3.699 -0.6261  0.2714  0.6369
 4676TIP3    H214458   2.365   0.533   3.606 -1.5754 -1.0557 -1.2917
 4677TIP3   OH214459   4.402   2.439   4.841  0.4697 -0.3008  0.0335
 4677TIP3    H114460   4.323   2.401   4.801  1.1545 -1.9737  0.2206
 4677TIP3    H214461   4.388   2.533   4.837 -1.8024 -0.5835  0.5725
 4678TIP3   OH214462   3.210   1.240   3.065  0.1441  0.6234 -0.0727
 4678TIP3    H114463   3.164   1.190   3.133 -0.1091  1.0122  0.0462
 4678TIP3    H214464   3.153   1.234   2.989  0.4370  0.1726 -0.2544
 4679TIP3   OH214465   4.151   5.609   4.471 -0.2413 -0.2842 -0.0196
 4679TIP3    H114466   4.196   5.557   4.538  1.0269  0.4276 -0.3081
 4679TIP3    H214467   4.127   5.690   4.516 -1.9236 -0.9500  0.3376
 4680TIP3   OH214468   2.979   1.288   4.689 -0.2402  0.0002 -0.0957
 4680TIP3    H114469   2.937   1.203   4.705 -1.4684  0.6231  0.0466
 4680TIP3    H214470   2.976   1.332   4.774  0.4642  0.1550 -0.1527
 4681TIP3   OH214471   2.714   1.502   2.265 -0.2035 -0.1076  0.6560
 4681TIP3    H114472   2.641   1.558   2.238  0.1100 -1.2074 -2.7291
 4681TIP3    H214473   2.789   1.560   2.270  0.0732 -0.0965 -2.6151
 4682TIP3   OH214474   2.414   0.705   4.240  0.3513  0.1428  0.0362
 4682TIP3    H114475   2.428   0.621   4.196  2.0391 -0.4872  1.7318
 4682TIP3    H214476   2.457   0.769   4.185 -1.5026  0.0176 -1.6127
 4683TIP3   OH214477   1.317   0.404   4.211  0.3412 -0.1232 -0.5399
 4683TIP3    H114478   1.405   0.370   4.227  1.1396  2.1377  0.0398
 4683TIP3    H214479   1.283   0.427   4.298 -0.8087 -0.9066 -0.7642
 4684TIP3   OH214480   3.375   0.078   1.625  0.7871 -0.0468 -0.4702
 4684TIP3    H114481   3.375  -0.010   1.588 -1.0608 -0.2996  0.0676
 4684TIP3    H214482   3.356   0.136   1.551 -3.2635 -0.5799  0.0312
 4685TIP3   OH214483   2.203   4.791   3.872 -0.1903  0.4526 -0.1037
 4685TIP3    H114484   2.286   4.743   3.881 -0.1447  0.1077 -2.2840
 4685TIP3    H214485   2.209   4.835   3.787 -2.4012  0.1195 -0.4574
 4686TIP3   OH214486   4.917   0.639   2.716  0.0756 -0.2077 -0.3971
 4686TIP3    H114487   4.960   0.696   2.653 -0.5391 -0.8305 -1.3895
 4686TIP3    H214488   4.875   0.698   2.778 -0.3837  0.4211 -1.2981
 4687TIP3   OH214489   2.572   0.317   4.923  0.0048 -0.2247  0.5064
 4687TIP3    H114490   2.628   0.253   4.880  0.6683 -0.6720  2.0002
 4687TIP3    H214491   2.605   0.321   5.013 -3.0056 -1.2413  1.7062
 4688TIP3   OH214492   4.449   1.603   4.483  0.4986  0.3955 -0.1189
 4688TIP3    H114493   4.384   1.582   4.416  0.8796 -0.9069 -0.0980
 4688TIP3    H214494   4.401   1.654   4.548 -0.6365 -0.9921  0.1550
 4689TIP3   OH214495   4.681   3.630   4.600  0.2366  0.7753 -0.4353
 4689TIP3    H114496   4.633   3.675   4.531 -0.7868 -1.9576 -1.5569
 4689TIP3    H214497   4.628   3.643   4.679 -0.3703  0.9833 -0.8775
 4690TIP3   OH214498   1.975   5.332   3.857 -0.5206  0.4738 -0.2511
 4690TIP3    H114499   1.942   5.384   3.930  0.9265  0.9491  0.0968
 4690TIP3    H214500   2.070   5.340   3.864 -0.3383 -0.5669 -1.4060
 4691TIP3   OH214501   0.452   0.264   5.391 -0.2917 -0.4428 -0.1233
 4691TIP3    H114502   0.396   0.335   5.361 -1.6345 -1.1982  0.5550
 4691TIP3    H214503   0.481   0.220   5.311  0.3950  0.7506 -0.5349
 4692TIP3   OH214504   2.168   1.008   3.592  0.1384  0.3081  0.0558
 4692TIP3    H114505   2.211   0.984   3.510  1.0073  1.2957  0.2101
 4692TIP3    H214506   2.235   0.993   3.659  0.1262  1.4924  0.3421
 4693TIP3   OH214507   4.475   4.757   6.040 -0.2124  0.0083 -0.0801
 4693TIP3    H114508   4.412   4.775   5.971 -0.6798 -2.2390 -0.2638
 4693TIP3    H214509   4.445   4.810   6.114 -3.3997 -2.3656  0.4215
 4694TIP3   OH214510   3.232   3.052   2.796  0.4743 -0.4886  0.0852
 4694TIP3    H114511   3.224   2.957   2.781 -0.8986 -0.6222  1.5148
 4694TIP3    H214512   3.198   3.065   2.884 -2.8095  1.8072 -1.4340
 4695TIP3   OH214513   3.853   3.122   5.040  0.4154  0.1153  0.1141
 4695TIP3    H114514   3.792   3.057   5.007 -0.0831 -0.3402  1.9072
 4695TIP3    H214515   3.869   3.180   4.966 -2.0902  0.1601 -0.4040
 4696TIP3   OH214516   1.092   1.114   4.690 -0.0476 -0.4910 -0.2911
 4696TIP3    H114517   1.087   1.192   4.745 -0.6819 -0.5103 -0.3147
 4696TIP3    H214518   1.151   1.055   4.736  1.1870  0.3805 -0.7436
 4697TIP3   OH214519   1.259   1.312   4.901  0.2906  0.3157  0.2924
 4697TIP3    H114520   1.302   1.333   4.984 -1.0234 -1.0585  1.3634
 4697TIP3    H214521   1.283   1.383   4.842  4.6765 -0.8183  0.5949
 4698TIP3   OH214522   0.049   5.903   3.442 -0.3451 -0.1607  0.3935
 4698TIP3    H114523   0.100   5.883   3.364  2.2518  1.2103  1.6767
 4698TIP3    H214524   0.014   5.991   3.426 -0.4928 -0.2139  0.4244
 4699TIP3   OH214525   1.412   5.953   2.697 -0.3023  0.1461 -0.2239
 4699TIP3    H114526   1.365   5.935   2.615  0.9842  2.1149 -1.4349
 4699TIP3    H214527   1.344   5.983   2.757 -1.3285 -1.7373 -0.3949
 4700TIP3   OH214528   1.591   2.136   4.993  0.2035 -0.6091  0.5034
 4700TIP3    H114529   1.523   2.071   5.010 -2.2425  1.3384 -1.3456
 4700TIP3    H214530   1.633   2.106   4.913 -1.7844  0.6297 -1.0841
 4701TIP3   OH214531   3.855   2.881   5.657  0.5934 -1.0448  0.1485
 4701TIP3    H114532   3.783   2.938   5.685  0.6560 -1.3481  0.9275
 4701TIP3    H214533   3.814   2.796   5.643  0.6104 -0.9574 -0.4312
 4702TIP3   OH214534   3.545   0.974   3.930  0.0361 -0.7892  0.9479
 4702TIP3    H114535   3.452   0.987   3.915  0.2351  0.2703  0.6084
 4702TIP3    H214536   3.559   0.998   4.021 -0.0012 -0.8662  0.9743
 4703TIP3   OH214537   4.749   4.098   5.967  0.2514  0.2508 -0.3729
 4703TIP3    H114538   4.819   4.103   5.901  1.8028 -0.6495  1.1727
 4703TIP3    H214539   4.726   4.189   5.984  1.2137  0.5662 -0.7332
 4704TIP3   OH214540   2.807   2.734   0.833  0.2241  0.0447 -0.0681
 4704TIP3    H114541   2.873   2.802   0.846 -0.4498  0.7414 -0.2502
 4704TIP3    H214542   2.723   2.779   0.848 -0.3740 -0.1318 -2.5533
 4705TIP3   OH214543   1.218   5.129   5.871 -0.2072  0.2910 -0.2195
 4705TIP3    H114544   1.157   5.155   5.940 -1.1462  0.3621 -1.0687
 4705TIP3    H214545   1.163   5.115   5.794  0.9109  0.8542 -1.1292
 4706TIP3   OH214546   2.074   3.167   5.422 -0.4604 -0.0586  0.2485
 4706TIP3    H114547   2.113   3.100   5.367 -0.3633  1.1920 -1.2363
 4706TIP3    H214548   1.991   3.130   5.451 -1.3033 -0.1110 -2.1178
 4707TIP3   OH214549   3.483   4.052   5.244 -0.0155 -0.2747 -0.3382
 4707TIP3    H114550   3.449   3.967   5.275 -0.7646  0.5620  1.2119
 4707TIP3    H214551   3.472   4.048   5.149  0.3023 -2.0649 -0.3257
 4708TIP3   OH214552   3.511   1.141   2.463  0.5220  0.0373 -0.4770
 4708TIP3    H114553   3.538   1.092   2.540 -2.4605 -1.2347 -0.1662
 4708TIP3    H214554   3.571   1.114   2.394  1.1899 -1.2573  0.5982
 4709TIP3   OH214555   3.263   4.888   4.091 -0.3884  0.0553  0.0421
 4709TIP3    H114556   3.356   4.865   4.084 -0.9311 -2.6823  1.2462
 4709TIP3    H214557   3.225   4.859   4.009 -0.4776 -0.3368  0.2219
 4710TIP3   OH214558   2.106   0.137   4.410  0.2469 -0.8365 -0.4266
 4710TIP3    H114559   2.127   0.057   4.361 -0.6674 -1.3245 -0.0253
 4710TIP3    H214560   2.031   0.175   4.365  0.8147 -0.0739 -0.7487
 4711TIP3   OH214561   4.209   5.143   3.214 -0.2616  0.2419 -0.5310
 4711TIP3    H114562   4.296   5.180   3.202 -0.4283  0.7812 -0.1068
 4711TIP3    H214563   4.168   5.147   3.128  1.4125 -3.3565 -1.6060
 4712TIP3   OH214564   3.881   2.532   3.764 -0.5187  1.2141  0.0179
 4712TIP3    H114565   3.895   2.621   3.794  0.0594  1.0326  0.3023
 4712TIP3    H214566   3.964   2.508   3.722 -1.0398  1.1857 -1.0068
 4713TIP3   OH214567   2.741   5.901   5.998  0.0384  0.6371 -0.2393
 4713TIP3    H114568   2.764   5.809   6.011  2.4168  0.9345 -2.0845
 4713TIP3    H214569   2.824   5.944   5.977 -0.8450  3.4376  1.6908
 4714TIP3   OH214570   1.174   3.985   3.581  0.7413 -0.0159  0.6963
 4714TIP3    H114571   1.190   3.989   3.675 -0.6384 -2.0330  1.0563
 4714TIP3    H214572   1.240   3.923   3.549  0.8553  0.2475  0.4208
 4715TIP3   OH214573   2.842   5.616   3.272 -0.0634 -0.0105 -0.2487
 4715TIP3    H114574   2.875   5.619   3.182 -0.1413 -0.1027 -0.2806
 4715TIP3    H214575   2.793   5.697   3.283 -1.8173 -0.9286 -0.9683
 4716TIP3   OH214576   5.589   1.447   2.563 -0.0683 -0.3531  0.5581
 4716TIP3    H114577   5.680   1.458   2.592  0.0441 -0.5321  0.2783
 4716TIP3    H214578   5.590   1.475   2.472 -0.6149  1.0817  0.9692
 4717TIP3   OH214579   1.756   1.446   1.072  0.2673 -0.0190  0.0268
 4717TIP3    H114580   1.668   1.420   1.045  0.4084  1.7895 -2.4144
 4717TIP3    H214581   1.809   1.436   0.993  1.7836  0.9451  0.8961
 4718TIP3   OH214582   5.382   0.955   3.909  0.1663 -0.0285  0.3293
 4718TIP3    H114583   5.412   1.025   3.851 -0.4888  0.7450  0.9150
 4718TIP3    H214584   5.381   0.994   3.996  0.7401 -1.0627  0.8120
 4719TIP3   OH214585   2.909   4.879   0.584 -0.1594  0.0003  0.7808
 4719TIP3    H114586   2.972   4.853   0.651  1.2777  0.5746 -0.3282
 4719TIP3    H214587   2.936   4.832   0.506 -0.7989  0.6552  0.1569
 4720TIP3   OH214588   0.454   2.406   4.378  0.2616  0.6276 -0.4351
 4720TIP3    H114589   0.540   2.439   4.405  0.8345 -0.7364 -0.5841
 4720TIP3    H214590   0.393   2.448   4.438  1.0752  1.1839  0.0205
 4721TIP3   OH214591   2.393   1.970   3.128 -0.5961 -0.0434  0.1362
 4721TIP3    H114592   2.421   2.054   3.162  0.4680 -0.5241  0.4776
 4721TIP3    H214593   2.385   1.914   3.205  0.2534 -0.6866 -0.2349
 4722TIP3   OH214594   2.980   0.008   3.198 -0.5035 -0.4104 -0.2722
 4722TIP3    H114595   2.989  -0.086   3.215 -0.5843 -0.4612 -0.5101
 4722TIP3    H214596   2.982   0.048   3.285 -2.6417 -0.8172 -0.0033
 4723TIP3   OH214597   4.157   0.660   4.389  0.4739 -0.0278 -0.5737
 4723TIP3    H114598   4.103   0.739   4.393 -0.7715 -0.8092 -1.4106
 4723TIP3    H214599   4.163   0.640   4.296 -0.2316 -1.5722 -0.3060
 4724TIP3   OH214600   2.168   3.336   4.667 -0.3113 -0.1302 -0.0975
 4724TIP3    H114601   2.210   3.388   4.736  1.6362 -0.4227 -1.0072
 4724TIP3    H214602   2.078   3.367   4.665  0.7182  3.1312 -0.4736
 4725TIP3   OH214603   3.211   1.648   2.211 -0.1979  0.0196 -0.2383
 4725TIP3    H114604   3.247   1.670   2.297 -0.6085 -2.0160  0.4852
 4725TIP3    H214605   3.288   1.642   2.154  0.2149 -0.1080  0.3216
 4726TIP3   OH214606   3.322   0.550   1.020  0.2319 -0.1817 -0.1438
 4726TIP3    H114607   3.285   0.470   1.056  0.4813  0.3202  1.2809
 4726TIP3    H214608   3.380   0.521   0.949  0.1789 -1.2414  0.2424
 4727TIP3   OH214609   1.789   4.923   1.011  0.1385 -0.6363  0.5714
 4727TIP3    H114610   1.801   5.012   1.043 -1.0187 -0.6879  1.1669
 4727TIP3    H214611   1.698   4.920   0.981  0.6477 -1.1473 -0.9592
 4728TIP3   OH214612   3.132   1.399   3.917 -0.1204  0.1564  0.6390
 4728TIP3    H114613   3.154   1.429   3.829 -1.3495  0.6276  0.4755
 4728TIP3    H214614   3.118   1.480   3.967 -0.3929 -0.1178  1.0145
 4729TIP3   OH214615   3.286   2.796   5.891  0.1769 -0.1122 -0.3026
 4729TIP3    H114616   3.295   2.724   5.954  0.5448 -0.9639 -1.3009
 4729TIP3    H214617   3.352   2.860   5.918  1.4753 -1.2138 -0.7893
 4730TIP3   OH214618   4.249   1.186   3.834 -0.2732 -0.1346 -0.2219
 4730TIP3    H114619   4.242   1.270   3.789 -3.8178  1.5620  3.2291
 4730TIP3    H214620   4.168   1.140   3.812  0.0556 -1.1904  0.7192
 4731TIP3   OH214621   2.807   5.698   4.624  0.0308 -0.3122 -0.2602
 4731TIP3    H114622   2.769   5.656   4.701 -0.8049 -1.6028 -1.3458
 4731TIP3    H214623   2.900   5.679   4.629  0.2941  1.2735  1.4402
 4732TIP3   OH214624   4.058   1.512   0.791  0.5249  0.0432 -0.0101
 4732TIP3    H114625   4.131   1.572   0.804  0.5847 -0.4570  2.1467
 4732TIP3    H214626   4.040   1.477   0.878 -1.3145 -0.9733 -0.7728
 4733TIP3   OH214627   5.064   2.082   5.646  0.0712  0.6281 -0.8132
 4733TIP3    H114628   4.991   2.026   5.620  0.0550  1.4938 -2.7165
 4733TIP3    H214629   5.141   2.025   5.643 -0.2883  0.1084 -0.3374
 4734TIP3   OH214630   3.754   5.440   2.861  0.8339  0.1839  0.0927
 4734TIP3    H114631   3.745   5.354   2.820 -1.0775  0.6252 -0.4754
 4734TIP3    H214632   3.665   5.462   2.890  1.6980  1.0093  2.1829
 4735TIP3   OH214633   4.556   0.859   3.935 -0.2596  0.4139 -0.3318
 4735TIP3    H114634   4.584   0.936   3.886  0.2389  0.3904 -0.0818
 4735TIP3    H214635   4.468   0.881   3.966 -0.3177  0.6832 -0.6871
 4736TIP3   OH214636   2.449   1.143   1.777  0.0563  0.8290 -0.1957
 4736TIP3    H114637   2.527   1.136   1.722  0.1659 -0.3879  0.1109
 4736TIP3    H214638   2.431   1.054   1.806 -0.1576  1.4023  1.5335
 4737TIP3   OH214639   3.989   1.555   5.266  0.0126 -0.0435  0.1833
 4737TIP3    H114640   4.017   1.549   5.358 -0.9105 -1.5440  0.3782
 4737TIP3    H214641   3.949   1.642   5.259  0.1921  0.1298  1.1756
 4738TIP3   OH214642   3.397   0.163   6.023  0.6010  0.2178 -0.1887
 4738TIP3    H114643   3.457   0.148   5.950 -1.5761 -2.0627 -1.5850
 4738TIP3    H214644   3.345   0.238   5.995 -0.2516 -0.6712 -1.0315
 4739TIP3   OH214645   5.870   5.322   4.727  0.4257 -0.2392 -0.0896
 4739TIP3    H114646   5.895   5.259   4.659  1.3098  0.6604 -0.6122
 4739TIP3    H214647   5.897   5.407   4.692  1.0778  0.2142  1.4686
 4740TIP3   OH214648   3.261   0.405   4.261 -0.1760  0.1030 -0.1458
 4740TIP3    H114649   3.326   0.451   4.208 -0.1026 -1.1188 -1.1423
 4740TIP3    H214650   3.182   0.458   4.253 -0.7676 -1.1334 -3.2411
 4741TIP3   OH214651   5.271   1.522   1.579 -0.3511  0.1871  0.2795
 4741TIP3    H114652   5.285   1.455   1.646 -2.7295 -2.1524 -1.4465
 4741TIP3    H214653   5.283   1.475   1.496  0.2795  2.4817 -0.9565
 4742TIP3   OH214654   5.389   5.633   4.107 -0.1422  0.0565  0.3992
 4742TIP3    H114655   5.388   5.729   4.100 -1.7171  0.1454  1.4643
 4742TIP3    H214656   5.400   5.602   4.017  1.1061  1.2362  0.1299
 4743TIP3   OH214657   4.510   0.226   5.193 -0.2029 -0.1562 -1.0105
 4743TIP3    H114658   4.564   0.252   5.267 -0.8701  1.1524 -0.9743
 4743TIP3    H214659   4.563   0.161   5.146  0.8721  0.1832 -0.2812
 4744TIP3   OH214660   3.505   5.754   4.190  0.3297  0.0715  0.1300
 4744TIP3    H114661   3.494   5.683   4.127  0.0995  0.7993 -0.6681
 4744TIP3    H214662   3.581   5.802   4.158 -0.0395  0.6866  0.1606
 4745TIP3   OH214663   1.064   1.413   4.522  0.2003 -0.4838 -0.0543
 4745TIP3    H114664   1.159   1.407   4.514  0.1572 -2.4036  0.4368
 4745TIP3    H214665   1.034   1.323   4.507 -1.4033 -0.2136  1.4333
 4746TIP3   OH214666   1.974   0.591   3.977  0.1605  0.0462 -0.2096
 4746TIP3    H114667   1.949   0.567   3.888  0.3631 -0.6813 -0.0762
 4746TIP3    H214668   2.024   0.672   3.968 -2.8353  1.9083 -0.4105
 4747TIP3   OH214669   4.267   1.362   5.657 -0.4972 -0.9938 -0.3314
 4747TIP3    H114670   4.333   1.366   5.727 -0.0963 -0.0041 -0.7611
 4747TIP3    H214671   4.221   1.280   5.673 -1.0081 -0.3363  1.6311
 4748TIP3   OH214672   4.312   3.563   0.325  0.5361  0.2967 -0.4455
 4748TIP3    H114673   4.329   3.655   0.346  0.6985 -0.0195  0.8055
 4748TIP3    H214674   4.225   3.546   0.361 -0.0207  0.2866 -1.7501
 4749TIP3   OH214675   5.237   0.501   3.907 -0.1222  0.5994 -0.3143
 4749TIP3    H114676   5.172   0.432   3.919 -0.5545  1.4583  2.7480
 4749TIP3    H214677   5.321   0.457   3.921 -0.3355  0.4257  0.4817
 4750TIP3   OH214678   1.894   6.077   4.560 -0.0900  0.4853  0.2240
 4750TIP3    H114679   1.980   6.099   4.596 -0.3670 -0.7769  1.7261
 4750TIP3    H214680   1.832   6.129   4.612 -0.5203 -1.5969  1.9104
 4751TIP3   OH214681   5.636   2.262   5.385  0.5355  0.1606  0.5253
 4751TIP3    H114682   5.571   2.200   5.353  0.5998  0.1216  0.4723
 4751TIP3    H214683   5.720   2.221   5.367  0.6658  1.2881 -1.6720
 4752TIP3   OH214684   3.203   0.289   2.024 -0.0963 -0.0531 -0.5240
 4752TIP3    H114685   3.147   0.225   1.979  1.5169 -2.6498  1.0123
 4752TIP3    H214686   3.179   0.280   2.116  0.7203  1.0181 -0.2044
 4753TIP3   OH214687   5.079   0.811   2.573  0.2621  0.2939  0.5684
 4753TIP3    H114688   5.137   0.753   2.622  0.5631 -1.3467 -1.6746
 4753TIP3    H214689   5.133   0.846   2.502 -1.1592 -0.4429 -0.9263
 4754TIP3   OH214690   4.430   5.107   0.322 -0.2958 -0.4663  0.5250
 4754TIP3    H114691   4.485   5.029   0.321  0.3197 -0.0922  2.3502
 4754TIP3    H214692   4.486   5.176   0.286  0.8567  0.1244  3.2468
 4755TIP3   OH214693   5.069   0.145   6.099  0.9674 -0.2672 -0.6370
 4755TIP3    H114694   5.043   0.236   6.114 -0.0070 -0.8957  1.7013
 4755TIP3    H214695   5.161   0.142   6.122  1.2310  0.3073 -1.5759
 4756TIP3   OH214696   3.852   1.630   3.825  0.1784 -0.0862  0.4011
 4756TIP3    H114697   3.858   1.535   3.821  0.9145 -0.1318  2.0410
 4756TIP3    H214698   3.811   1.648   3.910  2.3899  1.1162  1.2521
 4757TIP3   OH214699   3.012   5.877   2.879  0.9439  0.9374 -0.0780
 4757TIP3    H114700   3.072   5.949   2.898  1.5020  0.3440  0.4472
 4757TIP3    H214701   3.008   5.827   2.960 -1.0591  1.5362  0.2134
 4758TIP3   OH214702   5.543   5.373   5.754  0.1565  0.7230  0.0136
 4758TIP3    H114703   5.529   5.416   5.838  0.9261  0.3674  0.3287
 4758TIP3    H214704   5.486   5.296   5.756  0.0982  0.7709  0.1681
 4759TIP3   OH214705   2.827   4.881   6.011  0.2963 -0.2514 -0.1915
 4759TIP3    H114706   2.920   4.870   6.029  0.5129 -0.6568 -1.5067
 4759TIP3    H214707   2.789   4.906   6.095  1.5683 -0.2157  0.3800
 4760TIP3   OH214708   3.320   1.958   4.119  0.0280 -0.1853  0.3718
 4760TIP3    H114709   3.345   1.979   4.209  2.0503 -1.6766  0.1818
 4760TIP3    H214710   3.227   1.935   4.125 -0.1489  0.8398  1.8754
 4761TIP3   OH214711   4.389   2.155   3.452 -0.6222 -0.5396  0.4446
 4761TIP3    H114712   4.386   2.078   3.508  1.7091 -1.5390 -0.7124
 4761TIP3    H214713   4.419   2.122   3.367  0.8903  1.6780  0.0630
 4762TIP3   OH214714   5.921   3.069   0.195 -0.8752  0.9043 -0.0401
 4762TIP3    H114715   5.856   2.999   0.198 -0.5568  0.4519 -2.3561
 4762TIP3    H214716   5.875   3.146   0.229 -1.4585 -0.2461  1.8150
 4763TIP3   OH214717   0.474   5.220   1.973  0.5815  0.0376 -0.4676
 4763TIP3    H114718   0.486   5.127   1.951 -1.1218 -0.3777  0.2364
 4763TIP3    H214719   0.428   5.257   1.897  1.5383  0.3871 -0.8828
 4764TIP3   OH214720   4.581   4.552   2.943  0.4762  0.2641  0.1225
 4764TIP3    H114721   4.499   4.506   2.963  0.1486  0.5083 -0.6369
 4764TIP3    H214722   4.552   4.634   2.903  1.1013  0.2800 -0.2925
 4765TIP3   OH214723   4.833   1.892   4.817  0.5073 -0.2210  0.5422
 4765TIP3    H114724   4.855   1.964   4.876 -0.7101 -0.8478  1.7970
 4765TIP3    H214725   4.896   1.823   4.839 -0.0636 -0.5234  1.2730
 4766TIP3   OH214726   5.003   5.267   0.267  0.2417  0.0255  0.0673
 4766TIP3    H114727   4.963   5.311   0.342 -0.5894  0.4362 -0.6164
 4766TIP3    H214728   4.940   5.200   0.242 -0.3544  1.1128 -1.4369
 4767TIP3   OH214729   4.151   0.647   0.026 -0.4542  0.5153  0.1466
 4767TIP3    H114730   4.081   0.602  -0.021 -0.6642  0.8082  0.1813
 4767TIP3    H214731   4.213   0.577   0.049 -0.9577  0.1905  0.5219
 4768TIP3   OH214732   0.291   1.194   3.021  0.4892  0.5307 -0.3206
 4768TIP3    H114733   0.352   1.138   3.069  0.6144 -0.0505 -1.1512
 4768TIP3    H214734   0.225   1.133   2.986 -0.5769  1.1521  0.5742
 4769TIP3   OH214735   3.277   6.002   5.543 -0.5236 -0.0520 -0.1703
 4769TIP3    H114736   3.306   6.039   5.626 -0.4410 -1.8104  0.6140
 4769TIP3    H214737   3.199   6.052   5.520 -1.0813 -0.1586  1.4419
 4770TIP3   OH214738   4.106   0.803   0.574  0.2064 -0.0554  0.1692
 4770TIP3    H114739   4.089   0.896   0.590  0.8677 -0.0967  1.1275
 4770TIP3    H214740   4.116   0.796   0.479 -1.6765  0.5439 -0.0981
 4771TIP3   OH214741   4.843   1.396   4.888 -0.7445  0.2880  0.0980
 4771TIP3    H114742   4.749   1.408   4.887 -0.5794  2.3181  2.9669
 4771TIP3    H214743   4.861   1.348   4.968  0.6269 -0.5871 -0.7057
 4772TIP3   OH214744   3.217   0.065   4.770  0.2963  0.0161  0.1555
 4772TIP3    H114745   3.264   0.007   4.831 -0.9739  0.3153  1.4400
 4772TIP3    H214746   3.209   0.148   4.817  1.3172  0.9729 -1.3389
 4773TIP3   OH214747   4.349   5.997   4.568 -0.3974  0.2228 -1.1285
 4773TIP3    H114748   4.397   6.046   4.502  1.0983 -1.1657 -1.1006
 4773TIP3    H214749   4.370   6.039   4.651 -1.8833  1.6628 -1.4637
 4774TIP3   OH214750   5.552   2.999   4.504  0.2844 -0.0593  0.5570
 4774TIP3    H114751   5.584   2.967   4.419 -1.4200 -1.1486  0.2949
 4774TIP3    H214752   5.521   2.921   4.549 -0.4849  0.7481  1.4582
 4775TIP3   OH214753   5.339   2.511   3.915  0.4648 -0.2320 -0.0064
 4775TIP3    H114754   5.326   2.423   3.881  1.8665  0.0810 -1.4094
 4775TIP3    H214755   5.311   2.569   3.845 -1.0283  0.4648  1.1330
 4776TIP3   OH214756   3.745   5.592   5.184 -0.2433  0.2216  0.2794
 4776TIP3    H114757   3.773   5.589   5.093  1.0505  1.1379  0.6293
 4776TIP3    H214758   3.676   5.526   5.190 -0.0126 -0.1819 -1.2455
 4777TIP3   OH214759   3.748   0.044   5.717  0.0671  0.0149 -0.0144
 4777TIP3    H114760   3.814  -0.008   5.762 -0.4749  0.0469  0.8236
 4777TIP3    H214761   3.755   0.017   5.625 -0.8839 -2.2646  0.5476
 4778TIP3   OH214762   0.867   2.078   5.098  0.1627  0.1674  0.1189
 4778TIP3    H114763   0.931   2.066   5.028  1.6941  2.3080  1.0819
 4778TIP3    H214764   0.809   2.002   5.091  1.4253 -0.6331 -2.2348
 4779TIP3   OH214765   4.162   1.226   4.860 -0.7471 -0.4911 -0.5363
 4779TIP3    H114766   4.180   1.159   4.926  0.3892 -0.4894 -0.8403
 4779TIP3    H214767   4.149   1.306   4.910  1.0246 -0.2991 -0.3506
 4780TIP3   OH214768   4.161   0.801   5.054 -0.3500  0.2232  0.3475
 4780TIP3    H114769   4.087   0.857   5.029 -2.5470 -2.0947  1.4688
 4780TIP3    H214770   4.172   0.815   5.148  1.1239  1.0403  0.0817
 4781TIP3   OH214771   5.640   6.020   5.172 -0.1590 -0.9320 -0.1046
 4781TIP3    H114772   5.697   6.097   5.168  0.2886 -1.3534 -2.1668
 4781TIP3    H214773   5.612   6.005   5.082 -1.4596 -2.3027  0.4876
 4782TIP3   OH214774   4.024   2.879   4.177  0.0568  0.0531 -0.1515
 4782TIP3    H114775   4.067   2.860   4.093  0.0891  0.7128 -0.2844
 4782TIP3    H214776   3.964   2.951   4.157  1.6935  1.7380  0.8785
 4783TIP3   OH214777   4.514   1.602   5.261 -0.6151 -0.3358  0.5913
 4783TIP3    H114778   4.457   1.527   5.244  1.6936 -2.2725  1.1703
 4783TIP3    H214779   4.599   1.564   5.282  0.2721  2.4111  2.3164
 4784TIP3   OH214780   6.059   3.591   5.502  0.3285 -0.0116  0.4885
 4784TIP3    H114781   6.018   3.516   5.460  1.3788 -0.3696  0.0926
 4784TIP3    H214782   6.112   3.554   5.572  1.2297  0.3244 -0.0149
 4785TIP3   OH214783   5.446   2.147   6.071 -0.0155 -0.0553 -0.0302
 4785TIP3    H114784   5.450   2.234   6.111 -0.5443  0.5959 -1.3647
 4785TIP3    H214785   5.499   2.154   5.992  1.4833 -1.4938  0.8001
 4786TIP3   OH214786   5.320   5.214   0.655  0.5640  0.2362 -0.1193
 4786TIP3    H114787   5.295   5.211   0.563  0.0871  1.5202 -0.0476
 4786TIP3    H214788   5.330   5.307   0.674 -0.2239  0.0439  1.3537
 4787TIP3   OH214789   4.231   5.262   3.747  0.4455  0.2933 -0.1445
 4787TIP3    H114790   4.212   5.216   3.666  1.3486  1.3885 -0.9936
 4787TIP3    H214791   4.286   5.201   3.797  0.8622  0.0740 -0.8619
 4788TIP3   OH214792   0.427   5.689   5.309 -0.0964  0.5330  0.0768
 4788TIP3    H114793   0.428   5.764   5.250  0.9719  2.3880  2.3864
 4788TIP3    H214794   0.517   5.657   5.310 -0.0898  0.5523  0.7083
 4789TIP3   OH214795   5.327   1.404   2.634  0.1825  0.0344 -0.2751
 4789TIP3    H114796   5.339   1.341   2.705  0.6394 -0.1426 -0.5075
 4789TIP3    H214797   5.416   1.426   2.605 -0.0202 -0.5107 -1.3324
 4790TIP3   OH214798   5.540   0.431   2.035  0.4250  0.3530 -0.3331
 4790TIP3    H114799   5.628   0.469   2.044 -0.6855  2.8003  0.6311
 4790TIP3    H214800   5.539   0.359   2.097  1.1026  1.5990  1.1763
 4791TIP3   OH214801   5.748   1.747   3.948  0.2317  0.0528  0.1580
 4791TIP3    H114802   5.726   1.727   3.857 -0.2965 -0.3631  0.3753
 4791TIP3    H214803   5.780   1.663   3.983  0.6684  0.2717  0.2892
 4792TIP3   OH214804   0.677   5.953   4.215 -0.0136 -0.0373 -0.1629
 4792TIP3    H114805   0.724   5.870   4.217 -1.1857 -0.7559 -1.8130
 4792TIP3    H214806   0.746   6.019   4.209  0.8533 -0.9710 -0.6490
 4793TIP3   OH214807   2.790   5.909   5.302  0.1120  0.3609 -0.1289
 4793TIP3    H114808   2.779   5.856   5.224  1.0264 -1.2717  0.8182
 4793TIP3    H214809   2.701   5.922   5.335 -0.0257 -2.2227  0.6580
 4794TIP3   OH214810   3.964   0.773   5.933  0.2726 -0.0132  0.3872
 4794TIP3    H114811   3.955   0.699   5.993  1.2970 -1.4833 -1.2460
 4794TIP3    H214812   4.027   0.744   5.868 -1.0478  1.4573 -1.5978
 4795TIP3   OH214813   4.154   3.026   4.666  0.3816 -0.1525 -0.8099
 4795TIP3    H114814   4.139   2.934   4.688 -3.3802  0.2405 -1.4781
 4795TIP3    H214815   4.216   3.023   4.594 -0.3802 -2.2289 -1.4168
 4796TIP3   OH214816   3.169   3.249   5.399 -0.5216 -0.2689  0.2827
 4796TIP3    H114817   3.134   3.224   5.313  0.6949 -1.2481  0.0489
 4796TIP3    H214818   3.132   3.336   5.416  0.6184  0.7202 -2.0490
 4797TIP3   OH214819   2.541   0.837   2.864  0.8148  0.5928 -0.2560
 4797TIP3    H114820   2.533   0.923   2.823  1.9946  1.0024  0.3756
 4797TIP3    H214821   2.609   0.847   2.930  0.0988 -0.5033  0.6775
 4798TIP3   OH214822   4.193   1.209   5.389  0.0061  0.2938 -0.1790
 4798TIP3    H114823   4.150   1.137   5.437 -2.0040  1.0678 -0.7991
 4798TIP3    H214824   4.202   1.279   5.454  0.7895 -0.0302  0.0738
 4799TIP3   OH214825   5.875   0.643   2.617  0.3204  0.0454 -0.0756
 4799TIP3    H114826   5.811   0.605   2.558 -1.0435  2.1441  0.0071
 4799TIP3    H214827   5.879   0.581   2.691  0.8117 -1.7256 -1.5597
 4800TIP3   OH214828   0.511   2.170   5.432  0.1634 -0.4388  0.3837
 4800TIP3    H114829   0.575   2.168   5.503 -0.4675  1.9245  1.0659
 4800TIP3    H214830   0.460   2.089   5.443  1.0681 -0.8475  1.6562
 4801TIP3   OH214831   5.017   5.467   4.623  0.3968  0.1544 -0.0440
 4801TIP3    H114832   5.073   5.418   4.683 -1.2320  0.3062  1.6591
 4801TIP3    H214833   4.950   5.404   4.595  0.8917  0.2032 -1.3847
 4802TIP3   OH214834   5.404   5.864   3.713 -0.6248 -0.5552 -0.0252
 4802TIP3    H114835   5.310   5.861   3.700 -0.4969 -0.4274 -1.0349
 4802TIP3    H214836   5.441   5.866   3.625  0.2853  0.3771  0.3565
 4803TIP3   OH214837   4.103   4.678   5.944  0.5303 -0.1197 -0.1628
 4803TIP3    H114838   4.075   4.744   6.007  1.2505  0.5912 -0.5742
 4803TIP3    H214839   4.083   4.717   5.859  4.0327  1.0423 -0.5335
 4804TIP3   OH214840   3.450   0.123   4.553  0.3930  0.3094  0.1620
 4804TIP3    H114841   3.405   0.044   4.524 -2.2147  1.1004  1.8172
 4804TIP3    H214842   3.492   0.099   4.635 -1.2912  0.8647  1.2193
 4805TIP3   OH214843   0.175   5.585   3.553  0.0616  0.0583  0.1143
 4805TIP3    H114844   0.113   5.589   3.480 -0.2359  0.8164  0.3974
 4805TIP3    H214845   0.182   5.492   3.574  0.9681 -0.2626 -1.5688
 4806TIP3   OH214846   5.666   1.284   5.106  0.1555 -0.0973  0.1001
 4806TIP3    H114847   5.635   1.197   5.130  0.2829  1.2337  5.9075
 4806TIP3    H214848   5.586   1.337   5.100  0.3473  0.4250  1.7566
 4807TIP3   OH214849   3.338   1.505   5.182  0.2961  0.6157  0.0108
 4807TIP3    H114850   3.425   1.544   5.192  0.7747 -0.0039 -1.5691
 4807TIP3    H214851   3.354   1.424   5.134 -1.0593  0.0570  0.4891
 4808TIP3   OH214852   2.948   1.847   3.694  0.0378  0.4991 -0.1891
 4808TIP3    H114853   2.947   1.829   3.600  0.9508 -0.0132 -0.1093
 4808TIP3    H214854   2.977   1.938   3.701  0.1610  0.4757 -0.3986
 4809TIP3   OH214855   3.691   1.440   4.765 -0.0291  0.7355 -0.1845
 4809TIP3    H114856   3.687   1.535   4.761  0.1156  0.7330 -0.3700
 4809TIP3    H214857   3.780   1.421   4.796  0.6519  0.5994 -2.1442
 4810TIP3   OH214858   4.895   5.906   0.122  0.2462 -0.3502 -0.6343
 4810TIP3    H114859   4.800   5.914   0.116  0.1261  0.9931  2.1124
 4810TIP3    H214860   4.927   5.947   0.042 -1.4205  2.2023 -0.0797
 4811TIP3   OH214861   4.197   0.596   2.837 -0.0901  0.0204  0.4068
 4811TIP3    H114862   4.158   0.625   2.755  3.7820  0.5388 -1.3983
 4811TIP3    H214863   4.155   0.512   2.855 -3.4306  1.4929 -0.2561
 4812TIP3   OH214864   4.770   0.948   0.372  0.0903 -0.4892  0.3247
 4812TIP3    H114865   4.717   1.018   0.408 -0.2090 -0.2330 -0.5956
 4812TIP3    H214866   4.744   0.943   0.280  1.0125 -0.9617  0.0811
 4813TIP3   OH214867   5.607   0.744   3.559 -0.3584 -0.0685  0.4485
 4813TIP3    H114868   5.633   0.728   3.468  0.4654 -0.2822  0.7181
 4813TIP3    H214869   5.580   0.658   3.591 -1.6075  0.1811  0.1169
 4814TIP3   OH214870   5.266   0.826   3.165  0.1201 -0.6993 -0.8175
 4814TIP3    H114871   5.345   0.878   3.153 -0.7187  1.0926  1.0875
 4814TIP3    H214872   5.196   0.880   3.128 -0.8961  0.0087  1.9835
 4815TIP3   OH214873   3.768   4.304   0.523  0.1526 -0.2013 -0.1483
 4815TIP3    H114874   3.791   4.275   0.611 -1.0169  0.0049  0.2391
 4815TIP3    H214875   3.674   4.283   0.515 -0.4416  2.3983 -0.2920
 4816TIP3   OH214876   0.292   3.349   0.251 -0.5525  0.9024  0.2946
 4816TIP3    H114877   0.321   3.409   0.320  0.1869  0.8232  0.0473
 4816TIP3    H214878   0.207   3.318   0.282 -0.1553  0.7479  1.2518
 4817TIP3   OH214879   1.804   1.841   4.626 -0.0360 -0.3902  0.1723
 4817TIP3    H114880   1.771   1.761   4.584  0.8615 -0.9195  0.4472
 4817TIP3    H214881   1.870   1.874   4.565 -0.3045  0.0716  0.1283
 4818TIP3   OH214882   2.717   4.587   0.593  0.3415 -0.3345  0.6594
 4818TIP3    H114883   2.709   4.590   0.688  2.0848  2.5583  0.7846
 4818TIP3    H214884   2.811   4.585   0.577  0.1119  0.7421 -1.0023
 4819TIP3   OH214885   3.433   4.258   4.836  0.1914 -0.1658 -0.2243
 4819TIP3    H114886   3.402   4.339   4.877 -0.9824  0.4484 -2.2424
 4819TIP3    H214887   3.475   4.288   4.755  3.0085 -1.2895  0.7703
 4820TIP3   OH214888   4.102   0.381   5.308  0.1853  0.2706 -0.8654
 4820TIP3    H114889   4.015   0.343   5.297  0.2922 -0.4957  0.8018
 4820TIP3    H214890   4.151   0.315   5.357  1.3182  1.2489 -0.6649
 4821TIP3   OH214891   5.013   1.502   2.041  0.2266  0.0326 -0.3012
 4821TIP3    H114892   5.032   1.595   2.047  0.7011 -0.0871  0.1232
 4821TIP3    H214893   5.062   1.473   1.963  0.4780  0.0418 -0.1470
 4822TIP3   OH214894   5.540   2.315   4.249  0.2204  0.0512  0.2037
 4822TIP3    H114895   5.588   2.355   4.322  1.0813  0.6881 -0.6920
 4822TIP3    H214896   5.462   2.278   4.290  0.3683  0.9550  1.3617
 4823TIP3   OH214897   4.992   2.429   2.585 -0.2522 -0.2967 -0.1410
 4823TIP3    H114898   5.002   2.335   2.572 -1.2581 -0.7661  2.2597
 4823TIP3    H214899   5.082   2.461   2.594 -0.0245 -1.5080  2.0628
 4824TIP3   OH214900   1.783   0.470   4.119 -0.2222 -0.0858 -0.3716
 4824TIP3    H114901   1.704   0.489   4.068 -0.5825  1.0097  0.5725
 4824TIP3    H214902   1.852   0.519   4.075 -0.1532 -0.6406 -0.8976
 4825TIP3   OH214903   3.814   0.831   3.874 -0.2558  0.1869  0.4395
 4825TIP3    H114904   3.824   0.767   3.803  0.6717 -0.5670  1.2274
 4825TIP3    H214905   3.726   0.867   3.862  0.3196  0.9507 -1.8129
 4826TIP3   OH214906   3.741   5.916   0.773 -0.0155  0.1585 -0.0278
 4826TIP3    H114907   3.819   5.945   0.726  0.2665 -1.3102 -0.4928
 4826TIP3    H214908   3.764   5.830   0.808 -1.5915 -0.5123 -0.5908
 4827TIP3   OH214909   0.828   2.968   3.317 -0.3472  0.2413 -0.6275
 4827TIP3    H114910   0.789   3.053   3.335  1.3755  0.6638  1.2870
 4827TIP3    H214911   0.779   2.907   3.371  0.9193  0.6229  0.9995
 4828TIP3   OH214912   5.442   1.567   3.776  0.4925  0.0989 -0.1467
 4828TIP3    H114913   5.408   1.645   3.821 -1.7964 -1.1041  0.2910
 4828TIP3    H214914   5.487   1.518   3.845  4.0176  2.0912 -0.8928
 4829TIP3   OH214915   2.716   3.709   3.141  0.3443 -0.2894 -0.0266
 4829TIP3    H114916   2.628   3.733   3.170 -0.2579 -1.4260 -0.8609
 4829TIP3    H214917   2.736   3.771   3.071 -1.2527 -2.1936 -2.2581
 4830TIP3   OH214918   5.823   1.657   5.374  0.1836  0.1848 -0.3732
 4830TIP3    H114919   5.737   1.617   5.383  0.0899  0.4485 -0.0659
 4830TIP3    H214920   5.810   1.747   5.402  0.9304 -0.2311  1.4187
 4831TIP3   OH214921   5.299   5.460   3.750 -0.2615 -0.3011 -0.4612
 4831TIP3    H114922   5.386   5.482   3.784 -0.6434  0.6233 -0.0609
 4831TIP3    H214923   5.273   5.383   3.799  1.1010 -1.7049 -1.8828
 4832TIP3   OH214924   5.130   1.107   1.014 -0.0555  0.6089 -0.0653
 4832TIP3    H114925   5.172   1.044   0.955  0.7412  2.8710 -1.9708
 4832TIP3    H214926   5.188   1.111   1.090  1.7164  1.5736 -1.4435
 4833TIP3   OH214927   4.970   0.862   0.932  0.2273 -0.0856 -0.0111
 4833TIP3    H114928   4.888   0.851   0.979 -0.4793 -1.5177 -1.5170
 4833TIP3    H214929   5.034   0.812   0.982  0.2921  1.3927  1.4069
 4834TIP3   OH214930   2.811   1.370   4.326 -0.3713 -0.2232 -0.8445
 4834TIP3    H114931   2.719   1.344   4.328 -0.5737  0.5531 -0.1549
 4834TIP3    H214932   2.854   1.302   4.274 -0.8573 -2.0766  1.1153
 4835TIP3   OH214933   4.337   2.810   5.724 -0.7466 -0.0870  0.5833
 4835TIP3    H114934   4.390   2.737   5.753 -2.0475 -1.2859 -0.0079
 4835TIP3    H214935   4.247   2.780   5.736 -1.2924  1.2074 -0.1813
 4836TIP3   OH214936   2.490   1.690   4.869  0.4076 -0.4755 -0.5507
 4836TIP3    H114937   2.475   1.777   4.907  0.5278  0.3132 -2.2787
 4836TIP3    H214938   2.563   1.654   4.920 -0.5880 -0.1746  1.1298
 4837TIP3   OH214939   0.544   1.145   2.721 -0.1595 -0.9289  0.2157
 4837TIP3    H114940   0.461   1.103   2.700  0.6320 -2.2396 -0.3278
 4837TIP3    H214941   0.563   1.199   2.645 -0.7530 -0.2256  0.5558
 4838TIP3   OH214942   0.808   5.732   4.509  0.5605 -0.8469  0.0067
 4838TIP3    H114943   0.872   5.775   4.566 -1.4548 -0.0213  1.7019
 4838TIP3    H214944   0.830   5.763   4.421  1.0273  1.3312  0.8486
 4839TIP3   OH214945   5.337   1.791   4.957  0.1040  0.4872 -0.0558
 4839TIP3    H114946   5.374   1.709   4.924 -2.3186 -1.5382  2.0182
 4839TIP3    H214947   5.262   1.807   4.900  2.3629  3.0428 -2.4476
 4840TIP3   OH214948   4.097   5.872   4.537 -0.1023 -0.1719  0.1272
 4840TIP3    H114949   4.088   5.907   4.448  0.5607  0.8120  0.4353
 4840TIP3    H214950   4.186   5.897   4.563 -0.3813 -0.2532  1.1598
 4841TIP3   OH214951   5.754   1.538   4.747  0.3563 -0.0297 -0.5993
 4841TIP3    H114952   5.702   1.587   4.810  1.2427 -3.1797  2.6967
 4841TIP3    H214953   5.830   1.594   4.730 -0.4694  1.3666  0.2025
 4842TIP3   OH214954   3.689   1.030   2.290 -0.0751  0.1960  0.3870
 4842TIP3    H114955   3.652   0.948   2.257  1.7802 -0.8923  0.9446
 4842TIP3    H214956   3.767   1.004   2.339  0.4274  2.2778  0.7683
 4843TIP3   OH214957   3.799   1.107   5.245  0.1157 -0.4872 -0.4952
 4843TIP3    H114958   3.813   1.194   5.283  1.8133 -1.1157  0.3641
 4843TIP3    H214959   3.722   1.073   5.291  0.3449 -0.0416  0.2230
 4844TIP3   OH214960   4.283   1.754   4.651  0.1828  0.5705 -0.8810
 4844TIP3    H114961   4.298   1.707   4.734 -0.9219 -1.7997 -1.9734
 4844TIP3    H214962   4.193   1.785   4.657  0.1835  0.6139 -1.0908
 4845TIP3   OH214963   4.970   2.330   0.373  0.1655  0.0229 -0.5015
 4845TIP3    H114964   5.008   2.414   0.397 -1.4157  1.0619 -1.5664
 4845TIP3    H214965   4.952   2.287   0.457  1.3008  0.5639  0.0409
 4846TIP3   OH214966   4.959   1.878   2.549 -0.0420  0.0106  0.2890
 4846TIP3    H114967   4.975   1.805   2.609  1.1586  0.2992  0.3167
 4846TIP3    H214968   4.978   1.843   2.462  0.8453  0.3846  0.3328
 4847TIP3   OH214969   4.623   0.540   5.359 -0.1181 -0.0133 -0.1591
 4847TIP3    H114970   4.665   0.548   5.274  0.6078 -0.1837  0.1757
 4847TIP3    H214971   4.530   0.555   5.342 -0.0597 -0.6571 -1.0709
 4848TIP3   OH214972   3.772   5.881   5.146 -0.1598 -0.1563  0.4940
 4848TIP3    H114973   3.868   5.878   5.150 -0.2423 -1.4182  1.8690
 4848TIP3    H214974   3.745   5.789   5.152 -1.4776  0.2475  0.8462
 4849TIP3   OH214975   0.383   5.124   5.504 -0.0049 -0.1419 -0.3025
 4849TIP3    H114976   0.347   5.060   5.566  1.1029 -0.0679  0.4224
 4849TIP3    H214977   0.311   5.186   5.490 -0.0677  0.1998  1.4072
 4850TIP3   OH214978   4.929   2.845   3.508 -0.3251  0.4881  0.0584
 4850TIP3    H114979   4.966   2.919   3.555 -1.1298 -0.5263  2.3461
 4850TIP3    H214980   4.910   2.879   3.420 -0.0352  2.7808  0.8616
 4851TIP3   OH214981   3.232   0.976   5.746 -0.0411  0.5556 -0.4963
 4851TIP3    H114982   3.323   0.968   5.773 -0.6561 -0.0385  1.4723
 4851TIP3    H214983   3.194   1.039   5.807 -0.7036  1.6568 -1.9951
 4852TIP3   OH214984   4.112   3.845   4.854  0.0090  0.0233 -0.3160
 4852TIP3    H114985   4.020   3.860   4.877 -0.9473 -2.7086 -2.0627
 4852TIP3    H214986   4.160   3.860   4.935 -2.1655 -0.1069  1.0360
 4853TIP3   OH214987   0.363   2.018   3.774 -0.1089  0.1102 -0.2431
 4853TIP3    H114988   0.403   2.019   3.687  0.1298  1.8983 -0.1140
 4853TIP3    H214989   0.417   2.076   3.827 -0.8755 -0.1303  0.8297
 4854TIP3   OH214990   4.569   1.835   5.628  0.4834 -0.1807 -0.0088
 4854TIP3    H114991   4.637   1.873   5.684 -0.5015  0.8115  0.5340
 4854TIP3    H214992   4.502   1.803   5.689  0.2727 -0.7961 -0.5497
 4855TIP3   OH214993   5.530   3.380   0.789 -0.9669 -0.0926 -0.0821
 4855TIP3    H114994   5.565   3.469   0.778  2.2236 -1.4558 -1.6661
 4855TIP3    H214995   5.480   3.384   0.870  1.9327  2.3142  1.7046
 4856TIP3   OH214996   3.771   1.725   1.801  0.0228 -0.3063  0.3247
 4856TIP3    H114997   3.842   1.672   1.836 -0.6017 -0.7900  0.8813
 4856TIP3    H214998   3.778   1.809   1.848 -0.6085 -0.8374  1.3850
 4857TIP3   OH214999   4.785   5.119   3.992 -0.8742 -0.4821  0.2509
 4857TIP3    H115000   4.724   5.127   4.065  0.3460  2.5151  1.0215
 4857TIP3    H215001   4.852   5.058   4.023 -1.5009 -0.8854  0.8182
 4858TIP3   OH215002   4.171   0.532   5.069 -0.9145 -0.0294 -0.4066
 4858TIP3    H115003   4.126   0.615   5.082 -1.4442 -0.3278 -0.2925
 4858TIP3    H215004   4.138   0.476   5.140  0.3166  0.0238  0.2292
 4859TIP3   OH215005   4.923   0.841   3.190 -0.0321  0.2123  0.4204
 4859TIP3    H115006   4.950   0.776   3.255 -1.4348 -0.7634  0.0577
 4859TIP3    H215007   4.942   0.925   3.230  0.8264 -0.4048  1.3363
 4860TIP3   OH215008   4.367   0.129   5.811  0.0218 -0.0132 -0.4230
 4860TIP3    H115009   4.443   0.115   5.755 -0.5822 -0.2153 -1.1993
 4860TIP3    H215010   4.291   0.115   5.754 -0.6053 -0.3445  0.4755
 4861TIP3   OH215011   4.516   5.311   2.798  0.3247 -0.0083  0.2382
 4861TIP3    H115012   4.605   5.302   2.831  0.7500 -0.4187 -0.9792
 4861TIP3    H215013   4.511   5.402   2.767 -0.1968  0.4943  1.7385
 4862TIP3   OH215014   5.922   2.695   5.047 -0.0636  0.0952  0.3977
 4862TIP3    H115015   5.900   2.662   5.134 -0.2673 -2.6019 -0.6474
 4862TIP3    H215016   5.881   2.633   4.986  1.4823  0.9995 -1.6186
 4863TIP3   OH215017   5.359   0.418   3.326 -0.3578  0.3899 -0.1993
 4863TIP3    H115018   5.362   0.496   3.381  1.9025  0.9853 -1.1092
 4863TIP3    H215019   5.324   0.448   3.242 -2.3332 -0.2077  0.3816
 4864TIP3   OH215020   5.385   1.099   4.148  0.5692  0.2016  0.7537
 4864TIP3    H115021   5.327   1.174   4.134  1.0140  0.6788  1.4725
 4864TIP3    H215022   5.466   1.136   4.183  2.1002 -0.2202 -2.1957
 4865TIP3   OH215023   4.320   0.703   4.589  0.0830 -0.4649 -0.2708
 4865TIP3    H115024   4.339   0.797   4.589 -0.9845 -0.2403  0.4227
 4865TIP3    H215025   4.276   0.688   4.505  0.0126 -0.3050 -0.2625
 4866TIP3   OH215026   4.239   4.430   3.385 -0.4084 -0.4126 -0.4018
 4866TIP3    H115027   4.332   4.448   3.397 -0.2727 -0.2457 -1.5805
 4866TIP3    H215028   4.237   4.361   3.318 -1.1149 -0.8386  0.0524
 4867TIP3   OH215029   4.524   1.903   5.943 -0.0105 -0.0258  0.1140
 4867TIP3    H115030   4.533   1.966   6.014 -2.0913  2.6409 -1.8448
 4867TIP3    H215031   4.603   1.915   5.890  0.4113 -0.3143  0.6699
 4868TIP3   OH215032   1.634   5.281   2.289  0.2706 -0.2202  0.2374
 4868TIP3    H115033   1.588   5.268   2.206  1.4507 -0.4748 -0.3913
 4868TIP3    H215034   1.645   5.376   2.295 -0.2105 -0.1688  0.3196
 4869TIP3   OH215035   5.620   0.951   5.914  0.0062 -0.4806 -1.2066
 4869TIP3    H115036   5.535   0.920   5.945  0.5372 -2.4080 -1.5490
 4869TIP3    H215037   5.681   0.881   5.939  1.7351  1.4447  0.1913
 4870TIP3   OH215038   5.271   0.667   3.470  0.1971 -0.0025 -0.2642
 4870TIP3    H115039   5.181   0.686   3.443  0.0724  0.5034  0.4836
 4870TIP3    H215040   5.311   0.754   3.481 -0.1394 -0.1675  2.4340
 4871TIP3   OH215041   0.470   1.617   6.059  0.6309 -0.5358 -0.6092
 4871TIP3    H115042   0.476   1.713   6.059  1.5335 -0.5796  0.8270
 4871TIP3    H215043   0.555   1.588   6.026  0.7318 -0.8547 -0.0693
 4872TIP3   OH215044   3.329   5.739   5.494 -0.6369 -0.0177 -0.4624
 4872TIP3    H115045   3.318   5.831   5.518 -0.1093 -0.3275  1.0192
 4872TIP3    H215046   3.253   5.719   5.440 -1.2956  1.0078  0.0781
 4873TIP3   OH215047   5.168   0.296   1.909  0.7173  0.0082 -0.4221
 4873TIP3    H115048   5.141   0.319   1.998  0.3173  1.0002 -0.7842
 4873TIP3    H215049   5.223   0.370   1.882  1.2179 -0.5139 -0.8312
 4874TIP3   OH215050   4.981   4.724   5.940  0.0362 -0.0110  0.3064
 4874TIP3    H115051   5.024   4.753   5.859 -0.9816  1.1995  0.1833
 4874TIP3    H215052   4.900   4.684   5.911 -1.6995  2.9516  0.8398
 4875TIP3   OH215053   4.561   1.397   4.884  0.0295 -0.1743  0.5534
 4875TIP3    H115054   4.533   1.488   4.878 -0.3344 -0.3600 -0.6358
 4875TIP3    H215055   4.552   1.363   4.796  1.1077 -1.0958  0.7822
 4876TIP3   OH215056   3.329   1.715   0.468  0.3517 -0.3320 -0.5487
 4876TIP3    H115057   3.338   1.736   0.375  0.6220  0.4111 -0.3574
 4876TIP3    H215058   3.417   1.694   0.497  1.0787  3.8146  0.5704
 4877TIP3   OH215059   2.928   1.428   4.927 -0.0954 -0.2621 -0.0918
 4877TIP3    H115060   2.934   1.522   4.907  0.9611 -0.4241 -0.5238
 4877TIP3    H215061   2.995   1.413   4.994  0.6485 -0.9775 -0.9909
 4878TIP3   OH215062   5.314   4.258   5.111  0.3011 -0.1193  0.1759
 4878TIP3    H115063   5.255   4.334   5.113 -0.7445 -0.7596 -3.4016
 4878TIP3    H215064   5.397   4.292   5.146 -0.5557  2.2938  0.0042
 4879TIP3   OH215065   3.793   1.704   0.262 -0.4225  0.4185 -0.0419
 4879TIP3    H115066   3.833   1.638   0.205  1.5414  1.9980 -0.5520
 4879TIP3    H215067   3.804   1.669   0.350  0.3056 -0.0945 -0.3328
 4880TIP3   OH215068   1.125   0.479   0.688 -0.2504  0.6598 -0.6324
 4880TIP3    H115069   1.150   0.555   0.741  0.6596  0.5497 -0.9031
 4880TIP3    H215070   1.035   0.460   0.715  0.3976  0.2370  1.3167
 4881TIP3   OH215071   5.126   0.796   3.893 -0.3242  0.2778  0.1568
 4881TIP3    H115072   5.202   0.851   3.912  1.2575 -0.8392 -2.6708
 4881TIP3    H215073   5.162   0.709   3.879 -2.2815 -0.5366  0.0354
 4882TIP3   OH215074   4.126   4.918   4.576 -0.6977 -0.2222 -0.0992
 4882TIP3    H115075   4.201   4.904   4.633 -0.8946 -1.0253 -0.0334
 4882TIP3    H215076   4.053   4.878   4.623 -0.6730 -1.8222 -1.3852
 4883TIP3   OH215077   5.949   2.993   3.982  0.3296  0.5072  0.0304
 4883TIP3    H115078   5.868   3.041   3.969  0.5901  0.2718 -2.8607
 4883TIP3    H215079   6.018   3.053   3.953  0.8333 -0.7598 -1.4612
 4884TIP3   OH215080   3.889   1.762   3.033  0.3151  0.0826 -0.3925
 4884TIP3    H115081   3.900   1.667   3.025 -0.4269 -0.0728  0.3490
 4884TIP3    H215082   3.812   1.782   2.979 -0.7690 -0.0430  1.0658
 4885TIP3   OH215083   3.361   1.548   1.189 -0.1665 -0.1186  0.1404
 4885TIP3    H115084   3.324   1.490   1.255  1.4280  0.1060  1.2771
 4885TIP3    H215085   3.440   1.503   1.159  0.9663  1.3335  0.8749
 4886TIP3   OH215086   0.829   0.708   5.800  0.0184  0.1320 -0.2187
 4886TIP3    H115087   0.822   0.617   5.828 -0.6218 -0.0113 -0.8383
 4886TIP3    H215088   0.743   0.745   5.818  0.4591  0.7748  0.5879
 4887TIP3   OH215089   0.088   3.819   5.395  0.1946 -0.1568  0.3261
 4887TIP3    H115090   0.163   3.830   5.454  1.1606 -1.5319 -0.6083
 4887TIP3    H215091   0.036   3.749   5.435  1.6676 -2.2003 -1.1936
 4888TIP3   OH215092   0.174   2.226   0.190 -0.3457 -0.3098  1.1967
 4888TIP3    H115093   0.262   2.242   0.225  0.1083 -1.8990  0.8541
 4888TIP3    H215094   0.175   2.268   0.104  0.6573 -1.7226  0.4949
 4889TIP3   OH215095   4.275   2.059   0.382 -0.0222  0.5137 -0.9428
 4889TIP3    H115096   4.267   1.975   0.337  1.7440  0.6131 -1.4899
 4889TIP3    H215097   4.369   2.070   0.396 -0.4350  1.1816  1.4916
 4890TIP3   OH215098   5.167   5.699   4.505 -0.0565  0.7983 -0.0894
 4890TIP3    H115099   5.103   5.640   4.544  0.0048  1.6295  1.3072
 4890TIP3    H215100   5.221   5.643   4.450 -0.0732 -0.4246  1.1201
 4891TIP3   OH215101   4.603   5.491   4.588 -0.0185 -0.6814  0.1178
 4891TIP3    H115102   4.547   5.569   4.591 -0.6610 -1.0618 -1.2428
 4891TIP3    H215103   4.571   5.436   4.659 -0.0625 -0.0233  0.6071
 4892TIP3   OH215104   0.727   0.477   2.491 -0.0709  0.7704 -0.2795
 4892TIP3    H115105   0.785   0.457   2.418  0.3483  1.3413 -0.1081
 4892TIP3    H215106   0.658   0.411   2.486  0.2587  0.4675 -0.8545
 4893TIP3   OH215107   3.987   4.218   4.953  0.1608  0.4899  0.2954
 4893TIP3    H115108   4.043   4.227   5.030  1.2753  1.4532 -0.6205
 4893TIP3    H215109   3.902   4.192   4.988  1.3160 -1.5675  1.6655
 4894TIP3   OH215110   5.551   0.745   2.726  0.2781  0.0861 -0.0429
 4894TIP3    H115111   5.551   0.829   2.680 -0.1633  1.0735  1.7184
 4894TIP3    H215112   5.596   0.686   2.666  0.6581  1.5842 -1.2935
 4895TIP3   OH215113   0.037   2.062   2.911  0.1106  0.0182  0.2720
 4895TIP3    H115114   0.096   2.062   2.835 -0.0523  1.0136  0.1290
 4895TIP3    H215115   0.075   1.999   2.972  0.9779  0.1966 -0.0818
 4896TIP3   OH215116   4.386   0.280   4.576 -0.5726 -0.2217 -0.0642
 4896TIP3    H115117   4.364   0.318   4.661  2.2417  0.2760  0.4667
 4896TIP3    H215118   4.367   0.350   4.513  0.4231  0.5573  0.4834
 4897TIP3   OH215119   4.843   0.258   4.361 -0.1591 -0.3607 -0.2081
 4897TIP3    H115120   4.870   0.294   4.446  0.8901 -0.5531 -0.4628
 4897TIP3    H215121   4.764   0.308   4.339  0.9526  1.4170 -0.2838
 4898TIP3   OH215122   5.546   5.984   4.882 -0.5675 -0.3678  0.0869
 4898TIP3    H115123   5.635   5.992   4.848 -0.7931 -0.2053 -0.4743
 4898TIP3    H215124   5.504   5.921   4.824 -0.9461 -0.1121  0.0798
 4899TIP3   OH215125   5.629   5.174   0.332 -0.1344 -0.2554  0.2594
 4899TIP3    H115126   5.568   5.128   0.390  2.0007 -1.5152  1.5700
 4899TIP3    H215127   5.648   5.111   0.262  0.5482 -0.3174  0.4926
 4900TIP3   OH215128   3.979   2.117   4.104 -0.6159 -0.2776  0.3033
 4900TIP3    H115129   4.006   2.209   4.099 -0.3192 -0.4856 -2.6596
 4900TIP3    H215130   3.887   2.118   4.076 -0.3046 -1.0129 -0.7473
 4901TIP3   OH215131   3.846   2.973   3.615 -0.2156  0.3317 -0.8727
 4901TIP3    H115132   3.773   2.914   3.634  0.2635 -0.2211 -0.7210
 4901TIP3    H215133   3.805   3.054   3.585 -0.8808 -0.0500 -0.9936
 4902TIP3   OH215134   1.437   1.180   0.592  0.0387 -0.3147  0.5210
 4902TIP3    H115135   1.350   1.194   0.556 -0.7282  0.2459  2.5093
 4902TIP3    H215136   1.496   1.226   0.532 -0.9383 -1.2771 -1.2152
 4903TIP3   OH215137   1.885   1.702   5.747 -0.6593  0.0560 -0.4752
 4903TIP3    H115138   1.974   1.693   5.781 -0.8476 -1.1584 -0.2975
 4903TIP3    H215139   1.879   1.794   5.720  0.6061  0.1725 -0.3790
 4904TIP3   OH215140   2.379   2.230   0.774 -0.3777 -0.0506  0.2813
 4904TIP3    H115141   2.423   2.309   0.806 -1.6213  1.6288 -2.0057
 4904TIP3    H215142   2.405   2.224   0.682 -2.4032 -0.8002 -0.2664
 4905TIP3   OH215143   6.097   0.042   4.693  0.0124  0.1181 -0.4284
 4905TIP3    H115144   6.090   0.065   4.600  1.1524  0.5163 -0.4190
 4905TIP3    H215145   6.185   0.068   4.718  0.0111 -0.7807  0.5570
 4906TIP3   OH215146   5.462   1.932   5.778  0.1406  0.4700  0.2802
 4906TIP3    H115147   5.373   1.904   5.759  0.4403  0.8226 -1.8589
 4906TIP3    H215148   5.490   1.878   5.852 -1.1114 -1.1116 -0.3771
 4907TIP3   OH215149   2.341   1.002   3.960 -0.1625  0.3589 -0.4673
 4907TIP3    H115150   2.248   1.013   3.977 -0.5621 -0.1644 -2.1916
 4907TIP3    H215151   2.380   1.086   3.986 -0.8186 -0.0716  2.0145
 4908TIP3   OH215152   3.430   5.667   3.354  0.3225  0.2174  0.3620
 4908TIP3    H115153   3.461   5.592   3.404  0.4672  1.1788  1.7454
 4908TIP3    H215154   3.383   5.720   3.417  0.1611  1.2639 -0.6166
 4909TIP3   OH215155   0.699   0.280   3.639 -0.3012 -0.0510 -0.6826
 4909TIP3    H115156   0.777   0.266   3.693 -0.8836 -4.7065 -0.8484
 4909TIP3    H215157   0.633   0.314   3.700 -0.4018 -3.5223  1.2912
 4910TIP3   OH215158   0.178   0.066   3.027 -0.3258 -0.3507 -0.0476
 4910TIP3    H115159   0.266   0.028   3.018 -0.4196 -0.9958  1.4879
 4910TIP3    H215160   0.192   0.160   3.023  0.6592 -0.3974  1.7106
 4911TIP3   OH215161   5.076   3.505   2.867 -0.4137  0.5570  0.5306
 4911TIP3    H115162   5.107   3.419   2.897 -2.0577  0.7929  3.0019
 4911TIP3    H215163   5.110   3.567   2.931 -0.9216  1.5135 -0.1135
 4912TIP3   OH215164   5.647   3.248   3.660  0.4442  0.0279  0.3352
 4912TIP3    H115165   5.658   3.318   3.596 -1.6282 -1.8424 -2.2147
 4912TIP3    H215166   5.716   3.185   3.639  0.7511  0.1496  0.9793
 4913TIP3   OH215167   5.015   1.308   0.263 -0.1968 -0.6681  0.2688
 4913TIP3    H115168   4.940   1.344   0.216 -0.4346  0.5459  1.5501
 4913TIP3    H215169   5.041   1.377   0.324  0.2615 -2.1271  1.7515
 4914TIP3   OH215170   3.933   2.472   0.719 -0.0416  0.0136 -0.2019
 4914TIP3    H115171   4.022   2.465   0.684 -0.0752 -0.2788 -0.2302
 4914TIP3    H215172   3.896   2.548   0.676 -0.2708 -0.6661 -1.2199
 4915TIP3   OH215173   4.101   3.273   0.043  0.0129 -0.4523  0.0818
 4915TIP3    H115174   4.126   3.181   0.053  2.3619 -0.1232 -2.3049
 4915TIP3    H215175   4.064   3.278  -0.045  1.1392  1.1495 -0.3049
 4916TIP3   OH215176   3.460   4.542   4.209  0.6179 -0.2029  0.4369
 4916TIP3    H115177   3.481   4.636   4.206 -0.8390  0.1611  1.1539
 4916TIP3    H215178   3.544   4.500   4.227  1.4989  0.8701 -0.9733
 4917TIP3   OH215179   5.301   1.158   0.171  0.1747 -0.0254  0.1645
 4917TIP3    H115180   5.251   1.222   0.222 -0.4446 -0.2246 -0.1815
 4917TIP3    H215181   5.261   1.160   0.084 -0.2546 -1.3323  0.3199
 4918TIP3   OH215182   3.227   4.135   0.275  0.0816 -0.1335  0.9622
 4918TIP3    H115183   3.141   4.130   0.233  0.7539 -0.4584 -0.3901
 4918TIP3    H215184   3.254   4.043   0.286  1.2698 -0.0206 -0.7597
 4919TIP3   OH215185   3.548   1.166   5.343 -0.1602 -0.6606  0.2834
 4919TIP3    H115186   3.467   1.185   5.296  0.3899  3.7702  0.9662
 4919TIP3    H215187   3.519   1.136   5.430 -1.0929  0.0375  0.2200
 4920TIP3   OH215188   4.404   1.715   5.802  0.2373  0.0272 -0.0833
 4920TIP3    H115189   4.327   1.663   5.825  1.0891 -1.2856 -0.1537
 4920TIP3    H215190   4.409   1.782   5.871 -1.5096  0.7348 -0.6188
 4921TIP3   OH215191   4.627   2.853   3.455 -0.2790  0.0266 -0.3308
 4921TIP3    H115192   4.704   2.806   3.422  0.1286 -0.0770  0.7653
 4921TIP3    H215193   4.578   2.788   3.505  1.2892  1.2040  2.8437
 4922TIP3   OH215194   4.709   1.087   1.712  0.2574  0.0505  0.5564
 4922TIP3    H115195   4.778   1.069   1.777  0.9195 -1.4151 -0.5185
 4922TIP3    H215196   4.713   1.182   1.699  2.9617 -0.1394 -0.3994
 4923TIP3   OH215197   5.522   2.725   4.793  0.7080  0.2468  0.4052
 4923TIP3    H115198   5.470   2.668   4.849  1.4274 -1.1011 -0.2794
 4923TIP3    H215199   5.471   2.733   4.713  0.3266  1.0648  0.7223
 4924TIP3   OH215200   5.005   1.830   0.303 -0.4906 -0.6341  0.4465
 4924TIP3    H115201   5.095   1.831   0.271 -0.4612  2.0601  0.5231
 4924TIP3    H215202   5.013   1.849   0.396 -1.1073 -0.9789  0.5704
 4925TIP3   OH215203   2.567   3.619   5.097 -0.2221  0.6237 -0.4151
 4925TIP3    H115204   2.507   3.568   5.042 -0.8833  2.3924 -1.3748
 4925TIP3    H215205   2.517   3.635   5.177 -0.8795  1.6647 -1.0129
 4926TIP3   OH215206   0.820   0.373   3.216  0.4257 -0.8301 -0.8662
 4926TIP3    H115207   0.816   0.380   3.121  0.1290  0.2673 -0.7767
 4926TIP3    H215208   0.910   0.346   3.235  0.5663 -0.7545 -1.4338
 4927TIP3   OH215209   3.480   1.691   5.837 -0.6041  0.1774 -0.3958
 4927TIP3    H115210   3.435   1.615   5.873 -0.1013  0.5579  1.0607
 4927TIP3    H215211   3.437   1.766   5.877  0.9985  0.5610  0.6583
 4928TIP3   OH215212   5.177   5.166   5.411  0.0168 -0.0054 -0.2317
 4928TIP3    H115213   5.221   5.085   5.386 -0.3565  0.4119 -2.3888
 4928TIP3    H215214   5.248   5.228   5.425  0.2039  0.1772 -1.8978
 4929TIP3   OH215215   4.795   0.737   4.288  0.0721 -0.3235  0.1905
 4929TIP3    H115216   4.708   0.765   4.261  0.2886  0.8307  0.6434
 4929TIP3    H215217   4.825   0.679   4.218 -1.1062 -0.8410  0.0960
 4930TIP3   OH215218   2.042   0.217   1.009  0.1901  0.2410 -0.2060
 4930TIP3    H115219   1.993   0.136   0.991  0.0499 -0.0467  1.3578
 4930TIP3    H215220   2.056   0.256   0.923 -2.5350  0.1671 -0.7437
 4931TIP3   OH215221   2.108   1.455   4.530  0.0528  0.7030  0.3663
 4931TIP3    H115222   2.179   1.422   4.586  0.7281  1.3403 -0.1066
 4931TIP3    H215223   2.137   1.436   4.441 -0.8638  0.0030  0.2052
 4932TIP3   OH215224   2.726   2.541   3.840 -0.2375 -0.2587  0.5710
 4932TIP3    H115225   2.804   2.486   3.847 -0.5193 -0.4864  2.1096
 4932TIP3    H215226   2.670   2.513   3.913 -1.8911 -0.3117 -0.6854
 4933TIP3   OH215227   4.649   5.870   5.180  0.8531 -0.1146 -0.0824
 4933TIP3    H115228   4.687   5.858   5.267 -0.0716  0.8972  0.4802
 4933TIP3    H215229   4.663   5.787   5.136  0.7207 -0.8734  1.2763
 4934TIP3   OH215230   4.820   5.807   4.253 -0.4282 -0.2748 -0.1435
 4934TIP3    H115231   4.898   5.773   4.207 -0.5073  1.3253 -1.4880
 4934TIP3    H215232   4.754   5.738   4.241  0.3603 -1.0450 -0.1459
 4935TIP3   OH215233   3.823   1.078   2.838  0.2726  0.4044  0.0797
 4935TIP3    H115234   3.877   1.111   2.910 -1.4496 -1.1684  2.1558
 4935TIP3    H215235   3.875   1.007   2.799  0.9023  0.7929  0.2009
 4936TIP3   OH215236   1.460   1.521   4.992  0.0252  0.0997 -0.0499
 4936TIP3    H115237   1.436   1.466   5.067 -1.3315  0.4221 -0.2337
 4936TIP3    H215238   1.459   1.610   5.027  0.9242  0.1260 -0.0785
 4937TIP3   OH215239   4.760   4.927   5.231  0.0624  0.0543 -0.2178
 4937TIP3    H115240   4.666   4.938   5.220 -0.2865 -0.9348  1.5905
 4937TIP3    H215241   4.791   5.010   5.268  0.2454  1.0985 -2.6135
 4938TIP3   OH215242   5.656   2.962   3.628  0.4321  0.4404 -0.1144
 4938TIP3    H115243   5.651   2.997   3.539 -0.2775  1.0691  0.1685
 4938TIP3    H215244   5.565   2.950   3.654  0.6424 -0.0961  0.3922
 4939TIP3   OH215245   5.957   4.407   5.184  0.3342 -0.6942  0.5455
 4939TIP3    H115246   5.870   4.368   5.200  0.4690 -1.4719 -0.6069
 4939TIP3    H215247   6.003   4.343   5.131  1.5865 -0.2217  1.0433
 4940TIP3   OH215248   4.198   5.644   4.004  0.2194 -0.0186  0.6195
 4940TIP3    H115249   4.127   5.583   4.022  0.5682 -0.3627  0.8262
 4940TIP3    H215250   4.262   5.628   4.073  1.8355 -1.7834 -1.2344
 4941TIP3   OH215251   3.450   2.067   0.250  0.1508  0.4938  0.1352
 4941TIP3    H115252   3.513   2.139   0.241 -0.2293  0.8239  0.1049
 4941TIP3    H215253   3.365   2.110   0.252 -0.0128  0.1398  1.3509
 4942TIP3   OH215254   4.377   2.415   3.553  0.4122 -0.7541  0.1094
 4942TIP3    H115255   4.358   2.442   3.463  0.2591  0.1276  0.4020
 4942TIP3    H215256   4.400   2.323   3.545  0.8374 -0.5818 -0.9007
 4943TIP3   OH215257   4.365   2.627   0.613  0.0587  0.2652 -0.3362
 4943TIP3    H115258   4.346   2.714   0.577  0.1376 -0.6210 -2.6243
 4943TIP3    H215259   4.444   2.639   0.666  0.7699  1.3572 -1.6250
 4944TIP3   OH215260   0.942   2.755   5.627  0.3862  0.2375  0.6383
 4944TIP3    H115261   0.972   2.669   5.598  0.2854  0.3592  0.1711
 4944TIP3    H215262   0.846   2.749   5.625  0.3640  0.9072 -1.0553
 4945TIP3   OH215263   4.908   1.853   3.988  0.5787 -0.4647 -0.0412
 4945TIP3    H115264   4.876   1.823   4.073  0.0613 -1.3104 -0.5244
 4945TIP3    H215265   4.860   1.800   3.924  0.0973  0.9742 -0.9031
 4946TIP3   OH215266   0.453   5.854   3.190 -0.4764 -0.3520  0.2114
 4946TIP3    H115267   0.511   5.899   3.251 -2.6095  2.4997  0.2887
 4946TIP3    H215268   0.445   5.765   3.225  1.5179  0.0540  1.7871
 4947TIP3   OH215269   1.658   5.938   4.790  0.5918 -0.1027 -0.8185
 4947TIP3    H115270   1.659   5.910   4.698  0.8746  1.2399 -1.2371
 4947TIP3    H215271   1.658   5.856   4.840  1.2457 -0.8406 -2.0069
 4948TIP3   OH215272   4.950   0.377   4.606 -0.4667  0.2462 -0.5079
 4948TIP3    H115273   4.880   0.442   4.616  0.0648  0.4833  2.0138
 4948TIP3    H215274   5.031   0.428   4.616  0.0009 -0.3981 -1.0008
 4949TIP3   OH215275   1.129   5.979   0.623  0.1034  1.0918 -0.0056
 4949TIP3    H115276   1.221   5.971   0.649 -0.6563 -2.8486  1.7217
 4949TIP3    H215277   1.108   5.896   0.582 -3.1224  1.3205  1.0440
 4950TIP3   OH215278   5.804   5.978   4.760  0.0193 -0.2675  0.0086
 4950TIP3    H115279   5.838   5.892   4.783 -1.1078 -0.2200  1.9643
 4950TIP3    H215280   5.880   6.035   4.760  0.9479 -1.4421 -2.3781
 4951TIP3   OH215281   4.993   1.879   4.283 -0.1011 -0.0513  0.6259
 4951TIP3    H115282   4.922   1.815   4.276  0.9426 -1.3327  1.5517
 4951TIP3    H215283   5.073   1.827   4.275  0.7679  1.6477 -2.8609
 4952TIP3   OH215284   4.684   1.731   4.448 -0.4134 -0.2731 -0.3305
 4952TIP3    H115285   4.632   1.811   4.437  0.0268  0.0985  0.2890
 4952TIP3    H215286   4.620   1.663   4.465 -0.8276 -0.1428 -1.3209
 4953TIP3   OH215287   5.232   2.635   3.705 -0.3846 -0.1646 -0.0607
 4953TIP3    H115288   5.143   2.617   3.735 -0.9431  0.8502 -1.0855
 4953TIP3    H215289   5.246   2.573   3.633 -0.0239 -0.7419  0.4932
 4954TIP3   OH215290   6.098   1.652   5.408  0.0296 -0.3968 -0.7134
 4954TIP3    H115291   6.108   1.567   5.366 -0.2898 -0.1634 -1.2663
 4954TIP3    H215292   6.003   1.668   5.409  0.1533  0.4919 -1.7118
 4955TIP3   OH215293   5.240   0.692   0.085 -0.4947  0.3089 -0.5591
 4955TIP3    H115294   5.182   0.728   0.152 -1.9349 -1.7803 -0.6342
 4955TIP3    H215295   5.188   0.696   0.005  0.6787  1.4282 -1.2755
 4956TIP3   OH215296   0.090   3.158   0.000  0.4339  0.0887 -0.0422
 4956TIP3    H115297   0.093   3.115   0.085 -1.7904 -2.6518 -1.2943
 4956TIP3    H215298   0.011   3.212   0.003  0.4828  0.1769 -0.3209
 4957TIP3   OH215299   0.423   1.411   4.976  0.1019  0.3007 -0.5977
 4957TIP3    H115300   0.407   1.371   4.891 -0.0826  1.0503 -0.9164
 4957TIP3    H215301   0.511   1.447   4.970 -0.3824  1.4591 -0.9109
 4958TIP3   OH215302   3.638   5.852   5.453  0.3115 -0.2935  0.6396
 4958TIP3    H115303   3.664   5.934   5.410 -0.4183 -0.0012  0.7510
 4958TIP3    H215304   3.634   5.874   5.546  1.0101 -0.6926  0.7642
 4959TIP3   OH215305   3.224   5.924   4.073  0.1679 -0.1742  0.0478
 4959TIP3    H115306   3.302   5.905   4.124  1.0902  3.2201 -0.0279
 4959TIP3    H215307   3.155   5.935   4.138  0.4233 -0.0179  0.2897
 4960TIP3   OH215308   5.731   0.853   5.421  0.3508  0.1589 -0.0674
 4960TIP3    H115309   5.731   0.887   5.511  1.5778 -1.3499  0.5193
 4960TIP3    H215310   5.639   0.834   5.403  0.1262  0.2114  0.9824
 4961TIP3   OH215311   5.237   4.036   5.236 -0.2940 -0.3633 -0.3320
 4961TIP3    H115312   5.272   4.112   5.188 -2.0515  0.4491 -0.3707
 4961TIP3    H215313   5.219   3.971   5.168  1.2555 -0.8666 -0.2953
 4962TIP3   OH215314   4.142   0.277   1.544 -0.4046  0.5312  1.0374
 4962TIP3    H115315   4.062   0.310   1.585 -0.6960  1.2135 -0.0718
 4962TIP3    H215316   4.210   0.340   1.569 -0.1482 -0.1605  2.1537
 4963TIP3   OH215317   2.607   1.847   3.014  0.7108 -0.3277 -0.3910
 4963TIP3    H115318   2.535   1.891   3.059  0.6718 -0.5222 -0.2663
 4963TIP3    H215319   2.568   1.769   2.975  0.6112  0.1603 -1.2786
 4964TIP3   OH215320   1.444   0.336   1.233  0.5408  0.1158 -0.1371
 4964TIP3    H115321   1.539   0.347   1.228  0.5210  0.4983  0.2992
 4964TIP3    H215322   1.424   0.272   1.165  1.2282 -0.6644  0.3764
 4965TIP3   OH215323   0.240   0.126   4.173 -0.2222 -0.3133  0.1411
 4965TIP3    H115324   0.250   0.105   4.266  1.6234  1.5233  0.3955
 4965TIP3    H215325   0.276   0.050   4.127  1.6003  0.0125  0.9807
 4966TIP3   OH215326   5.447   2.088   4.410  0.2908  0.3514  0.0321
 4966TIP3    H115327   5.537   2.107   4.383 -0.4432  1.3848 -1.7764
 4966TIP3    H215328   5.449   1.996   4.437  1.4239 -0.2561 -2.0588
 4967TIP3   OH215329   3.501   1.313   4.896  0.5510 -0.1829  0.3182
 4967TIP3    H115330   3.420   1.345   4.857  0.2987  1.3985  2.1039
 4967TIP3    H215331   3.570   1.362   4.852  0.3208  0.8985  1.1299
 4968TIP3   OH215332   4.582   0.897   4.329 -0.2764 -0.2524  0.1593
 4968TIP3    H115333   4.517   0.963   4.354  0.6454  0.4383  0.7860
 4968TIP3    H215334   4.628   0.877   4.411  2.5639  1.7651 -0.8490
 4969TIP3   OH215335   6.077   1.570   2.571 -0.4851  0.0079 -0.2201
 4969TIP3    H115336   5.996   1.621   2.580  0.3765  1.5376 -0.8667
 4969TIP3    H215337   6.145   1.625   2.610  0.5253 -0.4924 -1.2269
 4970TIP3   OH215338   5.294   5.943   5.442 -0.1346  0.4473  0.0491
 4970TIP3    H115339   5.253   6.001   5.378 -0.0611  0.1063 -0.3087
 4970TIP3    H215340   5.385   5.972   5.446  0.2545 -0.5885 -1.2155
 4971TIP3   OH215341   4.272   1.238   4.617 -0.1142 -0.2627 -0.0614
 4971TIP3    H115342   4.232   1.241   4.704  1.7448  1.5581  0.7885
 4971TIP3    H215343   4.219   1.298   4.564 -1.4694 -1.6512 -0.3073
 4972TIP3   OH215344   0.267   0.499   5.355 -0.6955 -0.0292  0.0646
 4972TIP3    H115345   0.248   0.573   5.297 -1.4429  0.0856  0.4551
 4972TIP3    H215346   0.205   0.431   5.329 -0.5843 -0.2173  0.2844
 4973TIP3   OH215347   2.997   2.033   5.357 -0.6446 -0.9037  0.1030
 4973TIP3    H115348   2.907   2.067   5.349 -0.2002  0.9008  2.1653
 4973TIP3    H215349   3.001   1.999   5.446  0.6478 -1.2071 -0.0708
 4974TIP3   OH215350   4.914   1.762   5.757 -0.0934  0.1630  0.0905
 4974TIP3    H115351   4.916   1.674   5.796 -0.7112 -0.8318 -2.0853
 4974TIP3    H215352   4.975   1.758   5.684  0.0209  1.6253  0.0818
 4975TIP3   OH215353   0.181   5.392   4.893 -0.5311  0.1933  0.2395
 4975TIP3    H115354   0.146   5.480   4.877 -1.4047  0.0814  1.5133
 4975TIP3    H215355   0.209   5.393   4.985  1.0188 -0.3360 -0.2070
 4976TIP3   OH215356   0.107   2.098   5.358 -0.1750  0.5480 -0.3516
 4976TIP3    H115357   0.166   2.159   5.313 -0.1756 -0.1346 -1.2875
 4976TIP3    H215358   0.024   2.107   5.311 -0.6921  1.1654  0.6690
 4977TIP3   OH215359   0.416   4.529   2.797 -0.5586 -0.4128 -0.6800
 4977TIP3    H115360   0.453   4.585   2.866  0.7995 -1.0023 -0.9152
 4977TIP3    H215361   0.346   4.582   2.758  0.5932  1.0441 -0.7854
 4978TIP3   OH215362   5.101   3.138   2.681  0.5216  0.6433  0.0056
 4978TIP3    H115363   5.114   3.187   2.600 -0.4004 -0.3688 -0.7606
 4978TIP3    H215364   5.121   3.047   2.659  2.0522  0.6172  1.3854
 4979TIP3   OH215365   0.633   1.937   2.432 -0.5927  0.0151  0.3307
 4979TIP3    H115366   0.571   1.958   2.361 -1.3527 -0.0637  0.9610
 4979TIP3    H215367   0.629   1.841   2.440 -0.6682  0.0409  0.6186
 4980TIP3   OH215368   5.021   0.194   4.810  0.1217  0.2680 -0.2844
 4980TIP3    H115369   5.053   0.119   4.760 -2.6496 -0.1082 -1.6268
 4980TIP3    H215370   4.993   0.257   4.744 -3.5421 -0.2179  0.6615
 4981TIP3   OH215371   5.380   0.472   2.945  0.4279 -0.1924 -0.1120
 4981TIP3    H115372   5.326   0.510   3.014  0.0258  0.1952 -0.6356
 4981TIP3    H215373   5.336   0.390   2.923  0.8543 -0.5744  0.4676
 4982TIP3   OH215374   5.752   3.880   5.608 -0.4486  0.6626  0.8555
 4982TIP3    H115375   5.839   3.910   5.582  0.1345 -0.6049  1.2956
 4982TIP3    H215376   5.759   3.863   5.702 -0.5724 -1.4225  0.5002
 4983TIP3   OH215377   5.376   3.390   2.342 -0.0121 -0.4885 -0.3944
 4983TIP3    H115378   5.294   3.434   2.317 -0.5162  0.1773  2.3322
 4983TIP3    H215379   5.438   3.462   2.355 -0.5804 -0.5976  3.1579
 4984TIP3   OH215380   5.182   5.460   0.118  0.5355 -0.3348  0.3485
 4984TIP3    H115381   5.157   5.551   0.134  0.2478 -0.0047 -1.9427
 4984TIP3    H215382   5.123   5.409   0.175 -0.5518  0.8113  0.2769
 4985TIP3   OH215383   3.861   6.058   5.476  0.0502 -0.1111  0.6502
 4985TIP3    H115384   3.932   5.994   5.492  1.0327  0.9554  0.6370
 4985TIP3    H215385   3.882   6.095   5.391 -2.7392 -2.6021 -1.2127
 4986TIP3   OH215386   4.765   3.170   5.060  0.0802  0.2443  0.0837
 4986TIP3    H115387   4.780   3.123   4.978  0.1517  0.0232  0.2213
 4986TIP3    H215388   4.760   3.101   5.126 -2.2958  0.2468 -0.0553
 4987TIP3   OH215389   5.902   3.109   6.004  0.0020 -0.3794 -0.3979
 4987TIP3    H115390   5.940   3.062   5.930  0.2122 -1.8089  0.5944
 4987TIP3    H215391   5.949   3.076   6.081 -1.8478 -0.6845  0.6311
 4988TIP3   OH215392   2.579   0.520   5.784 -0.1207 -0.3183 -0.3169
 4988TIP3    H115393   2.490   0.543   5.756 -0.4664 -0.5627  0.5750
 4988TIP3    H215394   2.574   0.427   5.804  0.5475 -0.5195 -1.0618
 4989TIP3   OH215395   0.602   0.819   5.938  0.0753 -0.0725  0.4994
 4989TIP3    H115396   0.549   0.898   5.929  1.7032  0.9978  0.1537
 4989TIP3    H215397   0.650   0.830   6.020 -0.6462 -1.2922  1.0974
 4990TIP3   OH215398   1.549   3.583   3.038 -0.4241  0.1172 -0.3652
 4990TIP3    H115399   1.559   3.621   2.950  0.4678 -0.4462 -0.5127
 4990TIP3    H215400   1.475   3.523   3.030 -0.6250  0.3919 -0.6116
 4991TIP3   OH215401   5.595   0.266   3.717  0.1180 -0.0670 -0.5492
 4991TIP3    H115402   5.609   0.173   3.733 -2.8513 -0.1250  2.3030
 4991TIP3    H215403   5.682   0.300   3.696  1.3502 -3.3649 -1.0910
 4992TIP3   OH215404   0.168   5.285   5.519 -0.0792 -0.4344  0.5352
 4992TIP3    H115405   0.196   5.372   5.491 -0.4199  0.4321  2.8074
 4992TIP3    H215406   0.084   5.271   5.475  1.0738 -0.6268 -1.6862
 4993TIP3   OH215407   1.722   0.584   3.425 -0.2766 -0.3383 -0.3242
 4993TIP3    H115408   1.727   0.626   3.339 -2.4537  0.0504 -0.2917
 4993TIP3    H215409   1.651   0.630   3.469  1.6355  0.3158  2.1767
 4994TIP3   OH215410   4.780   3.276   0.608  0.0532 -0.4209 -0.2354
 4994TIP3    H115411   4.734   3.352   0.574  1.1668  0.0999 -0.5976
 4994TIP3    H215412   4.809   3.303   0.695  0.0962 -0.5761 -0.2012
 4995TIP3   OH215413   1.289   5.240   2.599  0.4072 -0.2910  0.3873
 4995TIP3    H115414   1.262   5.245   2.507 -2.5098 -0.8637  1.1366
 4995TIP3    H215415   1.322   5.151   2.609  1.0656 -0.1137 -0.1905
 4996TIP3   OH215416   5.683   0.199   5.507 -0.3159 -0.3657  0.1443
 4996TIP3    H115417   5.762   0.155   5.538 -0.1706 -0.1947  0.0088
 4996TIP3    H215418   5.689   0.288   5.542  0.5409  0.2582 -1.5534
 4997TIP3   OH215419   3.916   1.808   5.249 -0.1060  0.6904  0.3440
 4997TIP3    H115420   3.856   1.848   5.313 -0.2226 -0.6867  1.1093
 4997TIP3    H215421   3.990   1.868   5.245  0.8309 -0.1961  3.2939
 4998TIP3   OH215422   0.738   2.995   5.872  0.1835  0.5611 -0.3309
 4998TIP3    H115423   0.660   2.948   5.844 -0.7178  0.7676  1.7728
 4998TIP3    H215424   0.783   2.933   5.930  1.5666  0.4673 -1.4717
 4999TIP3   OH215425   5.497   2.683   5.194  0.1341  0.4245 -0.0781
 4999TIP3    H115426   5.536   2.605   5.155 -0.9886  0.8630 -2.2081
 4999TIP3    H215427   5.408   2.685   5.159 -0.8465  0.9846  2.4076
 5000TIP3   OH215428   0.442   2.260   1.137  0.4092  0.4839  0.0909
 5000TIP3    H115429   0.444   2.175   1.092  2.7233  0.1268  0.7984
 5000TIP3    H215430   0.414   2.322   1.069  0.1030 -0.6191 -0.8113
 5001TIP3   OH215431   1.739   3.054   5.075 -0.1677  0.5609 -0.1759
 5001TIP3    H115432   1.675   3.087   5.138 -0.1250 -1.8526  1.1699
 5001TIP3    H215433   1.823   3.070   5.117 -0.1096 -0.4619  0.0979
 5002TIP3   OH215434   1.290   3.216   5.192  0.2362  0.5645 -0.5479
 5002TIP3    H115435   1.251   3.231   5.278  1.9331  1.4329  0.0859
 5002TIP3    H215436   1.318   3.125   5.195  1.7311  1.0436  0.4201
 5003TIP3   OH215437   3.175   3.156   4.075 -0.3435  0.7522  0.4922
 5003TIP3    H115438   3.109   3.096   4.041  2.7846 -2.9577  0.6212
 5003TIP3    H215439   3.202   3.208   3.999 -1.2350  0.1811 -0.2239
 5004TIP3   OH215440   1.576   2.001   4.595 -0.3451 -0.2022  0.5233
 5004TIP3    H115441   1.659   1.955   4.590 -0.4377 -0.4101  0.9428
 5004TIP3    H215442   1.595   2.088   4.560  0.0059 -0.3070  0.4540
 5005TIP3   OH215443   4.574   2.704   4.394 -0.2876  0.0273  0.3086
 5005TIP3    H115444   4.657   2.686   4.439 -0.6802 -1.5561  0.4493
 5005TIP3    H215445   4.513   2.727   4.465  0.1442  1.6917  0.1563
 5006TIP3   OH215446   5.106   6.086   4.669 -0.1040 -0.2578  0.3226
 5006TIP3    H115447   5.044   6.013   4.664  0.4397 -0.5142 -4.1128
 5006TIP3    H215448   5.191   6.044   4.678 -0.1325  0.0006  2.0404
 5007TIP3   OH215449   5.266   5.292   4.671 -0.3607  0.2947  0.1673
 5007TIP3    H115450   5.284   5.363   4.609 -2.1773  0.5444 -0.1114
 5007TIP3    H215451   5.352   5.265   4.703  0.6383 -0.0202 -2.6761
 5008TIP3   OH215452   1.119   1.754   3.418  0.8309  0.5423  0.0259
 5008TIP3    H115453   1.141   1.670   3.459  0.9111 -0.0359 -1.1932
 5008TIP3    H215454   1.203   1.789   3.387  0.8010  1.0909  0.5410
 5009TIP3   OH215455   0.966   3.013   5.505  0.0824 -0.0071 -0.1262
 5009TIP3    H115456   0.931   3.007   5.416  1.2809  1.7512 -0.7351
 5009TIP3    H215457   0.952   2.926   5.542  0.1352 -0.9487 -2.2437
 5010TIP3   OH215458   0.732   0.839   0.070 -0.4783 -0.2075 -0.4764
 5010TIP3    H115459   0.810   0.894   0.080 -1.5980  1.5248 -0.8913
 5010TIP3    H215460   0.684   0.852   0.152 -1.7646  1.1425 -1.4005
 5011TIP3   OH215461   1.173   2.603   4.678  0.3233  0.4403  0.3213
 5011TIP3    H115462   1.192   2.511   4.659 -0.6351  0.1035  0.9095
 5011TIP3    H215463   1.235   2.627   4.747  0.2706  0.0831  0.4939
 5012TIP3   OH215464   1.483   0.838   4.225  0.2579  0.3477 -0.2436
 5012TIP3    H115465   1.464   0.797   4.141  1.5331 -1.5278  0.3646
 5012TIP3    H215466   1.405   0.821   4.278  0.4482 -0.5721 -0.2606
 5013TIP3   OH215467   0.699   4.723   4.749 -0.0826 -0.3389  0.1415
 5013TIP3    H115468   0.676   4.631   4.733 -0.5559 -0.1868 -0.0515
 5013TIP3    H215469   0.615   4.767   4.763  0.0586  0.2918 -0.9466
 5014TIP3   OH215470   0.007   3.966   4.790  0.0527 -0.4773 -0.5866
 5014TIP3    H115471   0.043   4.050   4.820 -2.0446  0.2083  0.1122
 5014TIP3    H215472  -0.046   3.988   4.713 -0.3395 -1.1815 -0.5269
 5015TIP3   OH215473   2.042   3.675   3.574 -0.4900  0.6066  0.6153
 5015TIP3    H115474   1.959   3.629   3.573 -0.5059  0.6700 -1.9249
 5015TIP3    H215475   2.021   3.761   3.611 -1.4223  0.3900  0.5998
 5016TIP3   OH215476   0.418   4.858   5.859 -0.2380 -0.1428  0.1952
 5016TIP3    H115477   0.380   4.805   5.789  0.1836 -0.7222  0.3897
 5016TIP3    H215478   0.456   4.793   5.919  1.5752  0.4184 -0.3030
 5017TIP3   OH215479   0.930   4.257   3.113  0.2983  0.1455 -0.4715
 5017TIP3    H115480   0.997   4.195   3.084  0.6244 -0.4856  1.5536
 5017TIP3    H215481   0.945   4.335   3.059  0.7034 -1.0778 -2.1548
 5018TIP3   OH215482   1.218   4.583   5.484  0.0420  0.8132 -0.1927
 5018TIP3    H115483   1.142   4.548   5.438  1.4969  0.2658 -2.2656
 5018TIP3    H215484   1.219   4.676   5.462 -1.0138  1.1956  1.2939
 5019TIP3   OH215485   5.641   2.963   2.585 -0.6081 -0.5052 -0.4255
 5019TIP3    H115486   5.574   3.031   2.589 -2.1762 -2.0657  0.8950
 5019TIP3    H215487   5.631   2.926   2.497 -1.1218 -0.3545 -0.4372
 5020TIP3   OH215488   3.598   5.097   5.431  0.5221  0.0058 -0.4616
 5020TIP3    H115489   3.675   5.150   5.411  0.2328 -0.2165 -2.2625
 5020TIP3    H215490   3.618   5.010   5.395 -0.6160 -0.0184 -1.0539
 5021TIP3   OH215491   1.041   1.758   4.300  0.2922 -0.0720  0.0305
 5021TIP3    H115492   1.072   1.839   4.340  0.0603 -0.5356  1.1705
 5021TIP3    H215493   1.120   1.706   4.285  0.4206  0.2744 -0.5171
 5022TIP3   OH215494   3.247   2.763   5.363 -0.4605 -0.3105  0.4774
 5022TIP3    H115495   3.275   2.729   5.278 -0.3319 -0.4981  0.5946
 5022TIP3    H215496   3.329   2.775   5.412 -0.2422  2.8392 -0.5473
 5023TIP3   OH215497   5.186   3.138   6.040  0.3084  0.6798  0.1666
 5023TIP3    H115498   5.179   3.203   5.970  0.1172  3.3648  2.5524
 5023TIP3    H215499   5.269   3.160   6.083  0.2944 -0.7678  0.9284
 5024TIP3   OH215500   0.970   2.994   3.915 -0.4160 -0.0594  0.1322
 5024TIP3    H115501   0.885   3.008   3.874 -0.8268  0.5832  1.1702
 5024TIP3    H215502   1.004   2.914   3.874 -0.6698  0.7240 -1.6455
 5025TIP3   OH215503   2.520   4.591   4.268  0.3376 -0.2599  0.5898
 5025TIP3    H115504   2.547   4.507   4.307 -1.8112 -1.8938 -1.3160
 5025TIP3    H215505   2.426   4.596   4.285  0.0649  0.7692 -1.1562
 5026TIP3   OH215506   2.496   0.384   3.089  0.4470  0.1821  0.4120
 5026TIP3    H115507   2.519   0.454   3.029  0.5349  0.5100  0.8206
 5026TIP3    H215508   2.580   0.347   3.117  0.4954  1.1878  1.6789
 5027TIP3   OH215509   0.271   0.957   2.348 -0.0569  0.0087 -0.1028
 5027TIP3    H115510   0.327   0.921   2.417  0.2155  2.2430  0.8879
 5027TIP3    H215511   0.195   0.992   2.395 -0.4956  0.3413 -1.0611
 5028TIP3   OH215512   0.088   0.783   3.658 -0.4287  0.8672 -0.4435
 5028TIP3    H115513   0.150   0.733   3.710 -1.2866 -0.1744 -0.4049
 5028TIP3    H215514   0.107   0.759   3.567 -0.3318  1.0602 -0.4745
 5029TIP3   OH215515   5.594   2.367   3.997  0.2827 -0.4976  0.5468
 5029TIP3    H115516   5.502   2.367   3.971  0.3783  2.4486  0.0704
 5029TIP3    H215517   5.591   2.352   4.092 -0.6902 -0.1209  0.5831
 5030TIP3   OH215518   0.249   1.614   5.074 -0.1361 -0.1052 -0.5121
 5030TIP3    H115519   0.172   1.563   5.049  0.2311 -0.8531 -0.1421
 5030TIP3    H215520   0.323   1.564   5.040  0.1898  0.5398 -0.7513
 5031TIP3   OH215521   5.109   1.801   5.214 -0.6596 -0.3026  0.2364
 5031TIP3    H115522   5.035   1.798   5.154 -0.6129 -1.3178  0.2183
 5031TIP3    H215523   5.129   1.894   5.224 -1.0384 -0.1052 -0.8527
 5032TIP3   OH215524   5.755   5.590   0.736  0.1304 -0.0150 -0.7950
 5032TIP3    H115525   5.750   5.496   0.749  0.3229 -0.1602 -1.7428
 5032TIP3    H215526   5.828   5.618   0.791  1.0051 -0.6293 -1.6311
 5033TIP3   OH215527   3.502   3.316   4.138  0.0738 -0.1944 -0.0338
 5033TIP3    H115528   3.554   3.246   4.098  1.3586  0.2093  0.8665
 5033TIP3    H215529   3.424   3.272   4.172 -0.6517 -0.6535 -2.2631
 5034TIP3   OH215530   4.774   0.346   5.547  0.5311  0.2056 -0.1776
 5034TIP3    H115531   4.839   0.378   5.609 -2.7358  0.9134  3.0858
 5034TIP3    H215532   4.722   0.424   5.524 -1.3589 -0.9241  0.1300
 5035TIP3   OH215533   0.407   4.575   5.241 -0.2234 -0.0666  0.4257
 5035TIP3    H115534   0.315   4.555   5.222  0.0087  1.3309 -2.4753
 5035TIP3    H215535   0.455   4.537   5.167  1.2197  1.7074  0.4174
 5036TIP3   OH215536   6.038   3.230   3.588 -0.3789 -0.3726 -0.1891
 5036TIP3    H115537   6.120   3.230   3.539  0.6360  0.6727  1.4693
 5036TIP3    H215538   6.009   3.139   3.587  0.8811 -0.7761 -0.6609
 5037TIP3   OH215539   3.908   4.341   1.852 -0.8072  0.2687  0.1050
 5037TIP3    H115540   3.996   4.348   1.890 -0.5656 -1.0749 -0.1901
 5037TIP3    H215541   3.849   4.344   1.927 -0.4575  0.1362  0.3864
 5038TIP3   OH215542   5.932   3.357   1.250  0.4259 -0.1018  0.0163
 5038TIP3    H115543   5.963   3.439   1.287  1.3609 -1.2326  1.7987
 5038TIP3    H215544   6.005   3.296   1.262 -1.1323 -1.8243  0.9208
 5039TIP3   OH215545   1.531   3.795   4.131  0.0928  0.2614  0.0708
 5039TIP3    H115546   1.437   3.806   4.145 -0.0216  0.2935 -0.7170
 5039TIP3    H215547   1.537   3.729   4.062  0.5848  2.2294 -1.8171
 5040TIP3   OH215548   2.947   1.832   0.150 -0.2458 -0.0117 -0.3090
 5040TIP3    H115549   2.946   1.878   0.234  0.3074  2.6068 -1.6661
 5040TIP3    H215550   2.861   1.851   0.112 -0.9545 -2.1899  0.1620
 5041TIP3   OH215551   5.642   3.338   5.992 -0.3203 -0.1140  0.3197
 5041TIP3    H115552   5.691   3.286   6.056 -0.1587 -0.0527  0.2455
 5041TIP3    H215553   5.692   3.419   5.984 -0.7512  0.1920  0.6806
 5042TIP3   OH215554   5.822   4.012   4.206 -0.1460 -0.1484 -0.7080
 5042TIP3    H115555   5.750   3.988   4.264  1.5402 -0.0879  1.4858
 5042TIP3    H215556   5.856   3.929   4.173  1.6774 -0.4895  1.9060
 5043TIP3   OH215557   5.057   2.969   0.806 -0.0268  0.9659  0.3008
 5043TIP3    H115558   5.038   2.907   0.876  0.2439  0.4123 -0.1173
 5043TIP3    H215559   5.124   2.927   0.754  0.2218  1.6501  0.0620
 5044TIP3   OH215560   1.066   4.543   4.880 -0.1603  0.3042 -0.3890
 5044TIP3    H115561   1.156   4.522   4.854  0.6566  0.8692  1.8700
 5044TIP3    H215562   1.044   4.620   4.829  1.2438  1.1243  0.2025
 5045TIP3   OH215563   0.552   4.924   0.736 -0.4406  0.0464 -0.0408
 5045TIP3    H115564   0.604   4.886   0.666  0.1372  0.4803  0.1495
 5045TIP3    H215565   0.492   4.984   0.691 -1.3607 -1.0745 -0.3411
 5046TIP3   OH215566   0.534   3.885   4.229  0.8979 -0.5073 -0.8970
 5046TIP3    H115567   0.508   3.810   4.175 -0.7764 -0.7648  0.2367
 5046TIP3    H215568   0.586   3.847   4.300 -1.2177 -0.8282  0.5330
 5047TIP3   OH215569   0.255   2.513   3.771 -0.3385 -0.2526  0.6598
 5047TIP3    H115570   0.219   2.441   3.719 -0.6446 -0.7441  1.5515
 5047TIP3    H215571   0.181   2.571   3.788  0.3516  1.4948 -2.0228
 5048TIP3   OH215572   0.449   0.480   4.769  0.1146 -0.0170 -0.2263
 5048TIP3    H115573   0.456   0.454   4.861  0.0637 -2.2221 -0.8125
 5048TIP3    H215574   0.357   0.464   4.747  0.3677 -0.4887 -0.9415
 5049TIP3   OH215575   5.254   2.684   6.089 -0.5409 -0.2607  0.1858
 5049TIP3    H115576   5.257   2.609   6.029  0.2425 -0.4788  0.4849
 5049TIP3    H215577   5.228   2.758   6.034 -2.0300 -0.8837  0.0282
 5050TIP3   OH215578   1.256   1.246   5.529 -0.0161  0.1987 -0.1344
 5050TIP3    H115579   1.348   1.273   5.536 -0.1617  0.8711 -0.7257
 5050TIP3    H215580   1.252   1.162   5.575  1.4420 -1.1037 -2.3253
 5051TIP3   OH215581   0.329   4.318   0.406  0.0186 -0.1526  0.3195
 5051TIP3    H115582   0.279   4.355   0.334 -0.3520 -0.3611  0.4672
 5051TIP3    H215583   0.361   4.393   0.455 -0.3590 -0.0180  0.3631
 5052TIP3   OH215584   0.345   1.935   5.402 -0.2362 -0.0720  0.7194
 5052TIP3    H115585   0.267   1.972   5.443 -1.2135 -2.8570  1.4653
 5052TIP3    H215586   0.320   1.845   5.379  2.6357 -0.8928  0.6471
 5053TIP3   OH215587   0.256   1.834   3.943  0.0334  0.2558  0.1202
 5053TIP3    H115588   0.319   1.894   3.903  1.7009 -0.8311  1.0894
 5053TIP3    H215589   0.251   1.862   4.034 -1.5351  0.8476 -0.1256
 5054TIP3   OH215590   2.969   1.227   4.156 -0.2258 -0.3906  0.4263
 5054TIP3    H115591   3.001   1.266   4.075 -2.6037  0.0218 -0.3585
 5054TIP3    H215592   3.026   1.151   4.170  0.0172 -0.6627 -1.8248
 5055TIP3   OH215593   1.061   3.113   4.239  0.1115  0.3603  0.3529
 5055TIP3    H115594   1.079   3.060   4.316 -0.7386 -0.9006 -0.2872
 5055TIP3    H215595   0.999   3.179   4.269  0.7796  0.6773  1.0429
 5056TIP3   OH215596   5.404   1.778   4.610  0.4077 -0.1490  0.3300
 5056TIP3    H115597   5.476   1.817   4.660  2.2670 -0.3743 -2.0873
 5056TIP3    H215598   5.447   1.720   4.548 -1.9966 -1.4996 -0.1071
 5057TIP3   OH215599   0.781   2.409   4.387 -0.3366  0.5291  0.1273
 5057TIP3    H115600   0.795   2.325   4.432  1.8716 -0.1043 -1.6619
 5057TIP3    H215601   0.816   2.395   4.299 -1.5475  2.8039 -0.7447
 5058TIP3   OH215602   2.280   3.540   3.487 -0.7939  0.2291  0.5745
 5058TIP3    H115603   2.243   3.458   3.520 -2.5106  0.3895 -0.9240
 5058TIP3    H215604   2.210   3.604   3.497 -1.2565  0.3744 -2.9207
 5059TIP3   OH215605   4.801   5.917   3.894 -0.2064 -0.9480 -0.3791
 5059TIP3    H115606   4.748   5.838   3.894  1.2869 -2.0381  2.4720
 5059TIP3    H215607   4.778   5.961   3.976  1.6419 -0.3456 -0.1499
 5060TIP3   OH215608   4.464   1.147   2.266  0.6350 -0.2958 -0.6232
 5060TIP3    H115609   4.482   1.153   2.360  1.7334  1.2477 -0.9069
 5060TIP3    H215610   4.481   1.056   2.245 -0.2800 -0.8201  0.8053
 5061TIP3   OH215611   0.853   2.375   2.008 -0.3960 -0.0202  0.0611
 5061TIP3    H115612   0.913   2.314   2.051 -0.9030  1.0136  2.3007
 5061TIP3    H215613   0.809   2.322   1.942  0.9950 -1.4620  0.2479
 5062TIP3   OH215614   0.242   3.354   5.455  0.5700 -0.1939  0.0862
 5062TIP3    H115615   0.334   3.359   5.480  1.1384  1.5198 -2.0940
 5062TIP3    H215616   0.244   3.357   5.359 -1.8300  2.8391  0.0360
 5063TIP3   OH215617   0.826   0.630   2.227  0.2557 -0.0472 -0.0813
 5063TIP3    H115618   0.769   0.568   2.183 -1.5883  0.2385  1.8253
 5063TIP3    H215619   0.883   0.577   2.281 -2.0486 -0.1167  2.3975
 5064TIP3   OH215620   2.314   2.328   4.159 -0.1054 -0.1780 -0.3869
 5064TIP3    H115621   2.319   2.249   4.212  1.7403  0.7514  0.9123
 5064TIP3    H215622   2.312   2.297   4.069 -2.0836 -1.7543  0.1769
 5065TIP3   OH215623   1.503   2.022   3.747  0.4471 -0.2721  0.4269
 5065TIP3    H115624   1.544   2.069   3.821 -0.3702 -0.4614  1.0079
 5065TIP3    H215625   1.409   2.041   3.756  0.5315  1.4732 -1.8110
 5066TIP3   OH215626   5.355   1.800   3.922  0.3165 -0.0667  0.1906
 5066TIP3    H115627   5.435   1.831   3.965  1.6565  0.5676 -2.6446
 5066TIP3    H215628   5.296   1.875   3.923  0.0016 -0.3227  1.6659
 5067TIP3   OH215629   0.439   3.239   4.950  0.3835 -0.3464  0.8109
 5067TIP3    H115630   0.375   3.187   4.902  1.9469 -2.5140  1.0346
 5067TIP3    H215631   0.448   3.320   4.899 -1.2166 -0.7611 -0.1449
 5068TIP3   OH215632   3.180   1.463   1.960  0.5934 -0.0064  0.5595
 5068TIP3    H115633   3.153   1.542   2.007 -0.6024 -0.9546  1.5085
 5068TIP3    H215634   3.156   1.391   2.019 -0.6213 -1.2171 -1.3503
 5069TIP3   OH215635   1.098   2.563   4.378 -0.2218  0.7791  0.6914
 5069TIP3    H115636   1.075   2.622   4.449  1.5257  1.6333  0.5620
 5069TIP3    H215637   1.170   2.511   4.413 -0.6282 -0.1314  0.2020
 5070TIP3   OH215638   2.525   1.867   0.479 -0.9688 -0.3780 -0.1333
 5070TIP3    H115639   2.586   1.830   0.542 -1.9443 -1.3378  0.2756
 5070TIP3    H215640   2.494   1.792   0.428 -2.6123 -0.0739  0.3807
 5071TIP3   OH215641   0.940   3.420   5.433 -0.0925  0.1439  0.0614
 5071TIP3    H115642   0.871   3.379   5.487  2.6713 -2.2410  1.9191
 5071TIP3    H215643   0.895   3.493   5.390 -3.2694  0.0685  2.9479
 5072TIP3   OH215644   1.474   2.657   3.947 -0.5023 -0.2759 -0.2103
 5072TIP3    H115645   1.471   2.645   4.042 -0.6174  0.0898 -0.1645
 5072TIP3    H215646   1.382   2.674   3.923 -0.2167  1.5049 -0.1294
 5073TIP3   OH215647   5.136   1.371   3.720  0.1260 -0.0554  0.1636
 5073TIP3    H115648   5.080   1.296   3.739 -1.8063  1.0462 -0.9264
 5073TIP3    H215649   5.175   1.394   3.804 -1.8347 -0.2656  1.1562
 5074TIP3   OH215650   1.113   3.687   3.886 -0.2311 -0.3214  0.0586
 5074TIP3    H115651   1.151   3.640   3.812  0.6792 -0.9310  0.8839
 5074TIP3    H215652   1.040   3.736   3.849  0.0064 -0.8711 -1.1751
 5075TIP3   OH215653   0.922   0.969   5.691  0.2331 -0.6293 -0.1948
 5075TIP3    H115654   0.838   1.004   5.719 -0.4648 -1.2165 -1.5226
 5075TIP3    H215655   0.925   0.880   5.726  1.6189  0.4005  2.4122
 5076TIP3   OH215656   1.737   2.590   5.062  0.2290 -0.1356 -0.4425
 5076TIP3    H115657   1.664   2.652   5.068  0.4470  0.1242 -0.4204
 5076TIP3    H215658   1.813   2.641   5.091  0.4005 -0.4343 -0.3676
 5077TIP3   OH215659   0.731   3.246   0.024  0.1923 -0.2395  0.6026
 5077TIP3    H115660   0.699   3.311  -0.039  0.8813 -3.0564 -2.8206
 5077TIP3    H215661   0.652   3.213   0.066 -0.4832  0.3106 -0.2040
 5078TIP3   OH215662   1.234   4.382   5.274  0.6407 -0.0713  0.8189
 5078TIP3    H115663   1.175   4.452   5.244 -0.5448 -1.5150 -0.3015
 5078TIP3    H215664   1.238   4.393   5.369 -0.2196  0.9854  0.7478
 5079TIP3   OH215665   5.208   3.946   4.220 -0.2685 -0.0070 -0.5491
 5079TIP3    H115666   5.115   3.968   4.215 -0.2503  0.0927 -0.4507
 5079TIP3    H215667   5.243   4.005   4.286 -0.4980 -1.3277  0.7774
 5080TIP3   OH215668   0.791   2.612   0.186  0.4289 -0.2793 -0.2855
 5080TIP3    H115669   0.722   2.567   0.137  0.9556 -0.7449 -0.6091
 5080TIP3    H215670   0.759   2.701   0.198 -0.9277 -0.9254  0.9419
 5081TIP3   OH215671   1.064   5.884   4.599  0.1452  0.1444  0.1261
 5081TIP3    H115672   1.044   5.816   4.664 -1.9332  0.5719 -0.0353
 5081TIP3    H215673   1.160   5.885   4.594  0.3906  0.4486  3.5706
 5082TIP3   OH215674   5.268   1.898   5.566 -0.6043  0.3797 -0.3967
 5082TIP3    H115675   5.225   1.816   5.541  0.9587 -0.5256 -0.1603
 5082TIP3    H215676   5.343   1.905   5.507 -0.5879  1.5486 -0.2597
 5083TIP3   OH215677   0.371   3.106   5.196 -0.5304 -0.2957 -0.6371
 5083TIP3    H115678   0.400   3.190   5.160 -0.7811  0.0157 -0.1289
 5083TIP3    H215679   0.329   3.061   5.123  0.2262 -0.2764 -1.0911
 5084TIP3   OH215680   2.322   2.530   5.453  0.2400 -0.0156 -0.6815
 5084TIP3    H115681   2.388   2.466   5.479 -1.6648 -1.8851 -0.3286
 5084TIP3    H215682   2.291   2.567   5.535  1.1021  1.1526 -0.8677
 5085TIP3   OH215683   1.889   1.889   2.575 -0.5618 -0.5468  0.3021
 5085TIP3    H115684   1.942   1.827   2.525  0.0541 -0.2972  0.6452
 5085TIP3    H215685   1.802   1.849   2.577  0.0183 -1.7958  1.2284
 5086TIP3   OH215686   2.196   2.879   4.401 -0.8250  0.3988  0.0749
 5086TIP3    H115687   2.161   2.868   4.490 -2.3363  1.1026 -0.4200
 5086TIP3    H215688   2.267   2.943   4.411  0.7606 -1.4580  1.1801
 5087TIP3   OH215689   2.531   2.505   5.087  0.2498  0.1918  0.3274
 5087TIP3    H115690   2.560   2.594   5.106 -0.9153  0.4893  0.7491
 5087TIP3    H215691   2.593   2.448   5.132 -1.9466  0.8459  4.4025
 5088TIP3   OH215692   1.416   2.974   0.700 -0.1520  0.3912  0.4063
 5088TIP3    H115693   1.500   2.933   0.719  0.1919  0.6838 -0.4483
 5088TIP3    H215694   1.418   3.058   0.745 -0.4089 -0.0515  1.2454
 5089TIP3   OH215695   1.613   2.529   5.588  0.1562  0.3255  0.1568
 5089TIP3    H115696   1.679   2.461   5.602  0.9520  1.2035  0.6567
 5089TIP3    H215697   1.546   2.486   5.533  0.2186 -1.1210  1.1884
 5090TIP3   OH215698   5.562   4.500   2.932  0.2362  0.4213 -0.3762
 5090TIP3    H115699   5.608   4.420   2.957 -0.7744 -0.1428 -0.3103
 5090TIP3    H215700   5.482   4.469   2.889 -0.3720  1.4030  0.0466
 5091TIP3   OH215701   1.367   4.316   3.857 -0.5015  0.2142 -0.2016
 5091TIP3    H115702   1.386   4.295   3.948 -1.8006 -0.3237 -0.0401
 5091TIP3    H215703   1.409   4.401   3.842  0.4572 -0.1100  0.6352
 5092TIP3   OH215704   1.533   3.376   4.380 -0.3667  0.4615 -1.1860
 5092TIP3    H115705   1.565   3.457   4.420  1.4706 -0.9949  0.3991
 5092TIP3    H215706   1.497   3.327   4.453  1.0603 -1.3324 -1.6674
 5093TIP3   OH215707   1.245   5.288   3.559 -0.2655 -0.3543 -0.2933
 5093TIP3    H115708   1.289   5.365   3.521 -0.5454 -0.2379 -0.3789
 5093TIP3    H215709   1.156   5.292   3.525 -0.4893 -0.3073  0.2929
 5094TIP3   OH215710   5.333   2.677   0.356  0.6404 -0.0995 -0.3763
 5094TIP3    H115711   5.261   2.616   0.370  1.3458 -1.1030 -1.0477
 5094TIP3    H215712   5.303   2.759   0.396  0.5289 -1.4474  2.4191
 5095TIP3   OH215713   0.851   1.593   4.161  0.6026 -0.1615  0.9380
 5095TIP3    H115714   0.903   1.670   4.180 -1.4875  1.4203  0.3880
 5095TIP3    H215715   0.762   1.616   4.188 -0.4588 -1.6069 -1.1625
 5096TIP3   OH215716   1.146   3.218   4.691  0.3324 -0.1548 -0.0538
 5096TIP3    H115717   1.082   3.189   4.756 -0.5170  0.9732 -0.3652
 5096TIP3    H215718   1.153   3.312   4.704 -0.0914  0.1418 -1.8064
 5097TIP3   OH215719   2.501   1.606   0.005 -0.2147 -0.0711 -0.6522
 5097TIP3    H115720   2.470   1.516  -0.003 -0.9549  0.0065  1.1752
 5097TIP3    H215721   2.474   1.647  -0.077 -2.8028 -0.6562 -0.1288
 5098TIP3   OH215722   5.622   1.663   5.735 -0.3578 -0.6232 -0.0074
 5098TIP3    H115723   5.587   1.615   5.660 -1.0348  0.0452 -0.1166
 5098TIP3    H215724   5.557   1.652   5.804 -1.0554  1.0598 -0.3773
 5099TIP3   OH215725   0.817   2.843   4.587 -0.0801  0.1501 -0.0027
 5099TIP3    H115726   0.798   2.937   4.592 -1.6115 -0.2304  1.9671
 5099TIP3    H215727   0.731   2.801   4.588  0.6389 -1.3343  0.7867
 5100TIP3   OH215728   5.649   3.355   2.416 -0.3937  0.1155 -0.2430
 5100TIP3    H115729   5.570   3.335   2.367 -1.3896  0.9435  1.0093
 5100TIP3    H215730   5.721   3.326   2.359 -1.5311  0.8960 -2.0998
 5101TIP3   OH215731   1.283   2.586   2.271 -0.1572 -1.0065 -0.5748
 5101TIP3    H115732   1.248   2.640   2.200  1.0465 -0.5941 -0.8539
 5101TIP3    H215733   1.283   2.497   2.235 -0.0176 -0.8699 -0.9116
 5102TIP3   OH215734   5.506   3.365   3.247 -0.4219  0.9180  0.2024
 5102TIP3    H115735   5.466   3.424   3.183  0.5926  0.9155 -0.4414
 5102TIP3    H215736   5.555   3.302   3.194  0.1573  0.7223  0.9665
 5103TIP3   OH215737   1.629   2.160   3.380  0.0893  0.3504  0.1443
 5103TIP3    H115738   1.680   2.162   3.299 -0.5527 -0.6225 -0.2971
 5103TIP3    H215739   1.622   2.252   3.407 -0.1625  0.7355 -1.2037
 5104TIP3   OH215740   1.942   1.956   5.659  0.7330  0.0403 -0.0443
 5104TIP3    H115741   1.867   2.012   5.642 -0.8840 -1.4278  2.0076
 5104TIP3    H215742   2.002   2.011   5.710 -0.7945 -0.0174  1.8615
 5105TIP3   OH215743   5.195   1.550   5.109 -0.1132 -0.3661  0.3027
 5105TIP3    H115744   5.155   1.562   5.023  1.8390  0.6306 -0.4833
 5105TIP3    H215745   5.172   1.629   5.158  0.1927 -0.1664  0.1259
 5106TIP3   OH215746   0.997   1.003   3.931  0.5557 -0.5871 -0.1060
 5106TIP3    H115747   0.999   1.073   3.996 -0.2844  0.0290 -0.7458
 5106TIP3    H215748   1.086   1.001   3.896  1.6483 -2.3662  2.5734
 5107TIP3   OH215749   0.675   1.085   5.698 -0.1033  0.3112 -0.3234
 5107TIP3    H115750   0.657   1.014   5.637  2.0516 -0.9724  0.5063
 5107TIP3    H215751   0.632   1.162   5.658 -1.3122 -1.1308 -1.8851
 5108TIP3   OH215752   4.080   3.635   5.604 -0.7190 -0.3615  0.2441
 5108TIP3    H115753   4.109   3.544   5.599  0.6034  0.0900 -0.5738
 5108TIP3    H215754   4.102   3.672   5.518 -1.8298  0.5608  0.3495
 5109TIP3   OH215755   5.612   2.440   5.159  0.0160  0.1301 -0.2131
 5109TIP3    H115756   5.634   2.365   5.104 -0.2881 -0.8465  0.9735
 5109TIP3    H215757   5.618   2.406   5.249  0.7103  1.7510  0.3613
 5110TIP3   OH215758   0.448   2.795   3.132 -0.7976 -0.3262  0.3220
 5110TIP3    H115759   0.388   2.745   3.187 -1.3963  0.5808  0.4939
 5110TIP3    H215760   0.398   2.814   3.052 -0.7533  0.4425  0.4712
 5111TIP3   OH215761   5.231   2.827   4.247  0.1147 -0.0808 -0.0187
 5111TIP3    H115762   5.216   2.838   4.341  2.9764  1.6648  0.2669
 5111TIP3    H215763   5.291   2.753   4.241  0.7905  0.5017 -0.4159
 5112TIP3   OH215764   3.115   4.305   0.467  0.0281  0.3563 -0.1802
 5112TIP3    H115765   3.048   4.261   0.520  0.7901  0.5499  0.9549
 5112TIP3    H215766   3.143   4.238   0.405  0.2274 -0.3475  0.6663
 5113TIP3   OH215767   0.597   2.523   5.801  0.6033  0.9655  0.2515
 5113TIP3    H115768   0.565   2.530   5.891 -0.0434 -1.8534  0.2774
 5113TIP3    H215769   0.668   2.460   5.806 -0.0283  0.1151 -1.3566
 5114TIP3   OH215770   1.263   4.059   3.834 -0.1966 -0.2154  0.6040
 5114TIP3    H115771   1.324   4.003   3.882  0.2362  0.5767  0.9937
 5114TIP3    H215772   1.316   4.135   3.808 -0.4431 -0.5932 -1.0684
 5115TIP3   OH215773   2.397   4.452   5.377 -0.3381 -0.7347 -0.5779
 5115TIP3    H115774   2.461   4.523   5.384  0.7166 -1.6113 -1.2774
 5115TIP3    H215775   2.315   4.491   5.410  0.6678  0.2212  0.8880
 5116TIP3   OH215776   0.679   3.568   4.681  0.0711 -0.4533 -0.0738
 5116TIP3    H115777   0.747   3.580   4.747  0.3768 -1.8453 -0.1152
 5116TIP3    H215778   0.641   3.655   4.669  1.9232  0.3597 -0.1514
 5117TIP3   OH215779   1.926   2.357   4.534  0.0658 -0.0324 -0.5706
 5117TIP3    H115780   1.876   2.395   4.462  0.7260  1.2665 -0.3621
 5117TIP3    H215781   1.861   2.309   4.586 -1.6096  4.0534  1.3635
 5118TIP3   OH215782   1.148   2.539   3.921 -0.1451  0.1364 -0.2526
 5118TIP3    H115783   1.140   2.548   4.016  1.3988 -0.8911 -0.0015
 5118TIP3    H215784   1.062   2.511   3.892 -0.2107 -1.0928  1.0634
 5119TIP3   OH215785   5.458   2.934   3.938 -0.0789 -0.4923  0.1819
 5119TIP3    H115786   5.445   2.915   3.845  0.0817 -0.6861  0.1985
 5119TIP3    H215787   5.421   3.022   3.950  1.7254  0.3834 -0.4995
 5120TIP3   OH215788   5.483   4.329   1.229 -0.6345 -0.3376  0.2224
 5120TIP3    H115789   5.510   4.420   1.242 -1.2169 -0.2246  0.6257
 5120TIP3    H215790   5.476   4.319   1.134  0.6277 -0.3089  0.1070
 5121TIP3   OH215791   1.577   3.608   4.547  1.1301 -0.7153 -0.3171
 5121TIP3    H115792   1.561   3.702   4.541  0.1829 -0.9113 -0.9728
 5121TIP3    H215793   1.563   3.586   4.639  0.3381 -0.3994 -0.3639
 5122TIP3   OH215794   0.436   4.059   5.158 -0.1767  0.5090 -0.1583
 5122TIP3    H115795   0.489   3.980   5.151 -0.1733  0.5350 -0.4282
 5122TIP3    H215796   0.350   4.033   5.125 -1.1352 -0.3010  2.8592
 5123TIP3   OH215797   0.421   4.786   5.410  0.0637  0.0141 -0.4679
 5123TIP3    H115798   0.515   4.796   5.427  0.0162 -1.9831  1.2139
 5123TIP3    H215799   0.415   4.708   5.354 -0.6119 -0.0879 -0.2529
 5124TIP3   OH215800   1.143   4.103   2.243  0.1878 -0.1036  0.5923
 5124TIP3    H115801   1.055   4.090   2.206 -0.2955  0.7473  1.4274
 5124TIP3    H215802   1.134   4.075   2.334  0.6869  0.3390  0.7749
 5125TIP3   OH215803   0.564   1.953   3.167  0.7813  0.2208  0.2857
 5125TIP3    H115804   0.569   1.858   3.153  0.0705  0.1817  0.2650
 5125TIP3    H215805   0.649   1.986   3.139  0.4346 -0.2117 -1.3332
 5126TIP3   OH215806   2.049   2.226   5.677 -0.0382  0.0830 -0.5363
 5126TIP3    H115807   2.006   2.215   5.592 -1.8499  0.8682  0.2355
 5126TIP3    H215808   2.018   2.312   5.708 -0.6666 -0.8816  1.6026
 5127TIP3   OH215809   1.875   3.873   5.989  0.2411  0.2506 -0.3328
 5127TIP3    H115810   1.958   3.893   6.031  0.1280  2.1201 -0.9465
 5127TIP3    H215811   1.822   3.833   6.058  1.5939 -0.8683  0.0838
 5128TIP3   OH215812   0.798   4.612   5.608 -0.9070 -0.2656 -0.4841
 5128TIP3    H115813   0.720   4.585   5.560  0.1697 -2.2984 -1.1857
 5128TIP3    H215814   0.859   4.540   5.595  0.5597  0.6295  1.2876
 5129TIP3   OH215815   5.558   3.279   4.735  0.1844 -0.8854 -0.0998
 5129TIP3    H115816   5.620   3.347   4.760  0.1666 -0.4785 -1.1233
 5129TIP3    H215817   5.594   3.242   4.654 -0.2023 -1.5694  0.0369
 5130TIP3   OH215818   5.184   1.517   4.708 -0.3755  0.0951  0.4828
 5130TIP3    H115819   5.186   1.423   4.726 -2.6900 -0.3487 -1.3734
 5130TIP3    H215820   5.097   1.545   4.737  0.2691  1.6854  0.9596
 5131TIP3   OH215821   0.877   5.803   4.812  0.5307 -0.3872 -0.0264
 5131TIP3    H115822   0.869   5.740   4.883  0.4933  0.0940  0.3924
 5131TIP3    H215823   0.906   5.884   4.854 -0.8750  0.2994 -0.3553
 5132TIP3   OH215824   0.838   2.902   4.993  0.6351 -0.1289 -0.4150
 5132TIP3    H115825   0.864   2.824   4.945 -0.6204 -1.6288  1.2742
 5132TIP3    H215826   0.782   2.950   4.931  2.5095  0.1703 -1.9438
 5133TIP3   OH215827   1.680   1.915   4.147 -0.6336 -0.1374 -0.6060
 5133TIP3    H115828   1.713   1.982   4.207 -1.4083 -2.1576  2.2126
 5133TIP3    H215829   1.758   1.870   4.115 -0.2798  0.1066 -0.0863
 5134TIP3   OH215830   1.442   2.072   2.248  0.1920  0.1601  0.5857
 5134TIP3    H115831   1.431   2.079   2.343  3.3560  1.0713  0.9494
 5134TIP3    H215832   1.442   1.978   2.231  0.8443 -0.0617  1.6985
 5135TIP3   OH215833   3.610   0.078   0.776 -0.0114  0.2599  0.3543
 5135TIP3    H115834   3.644  -0.011   0.769 -1.6918 -0.2085 -2.9215
 5135TIP3    H215835   3.661   0.129   0.714 -0.1519  1.2351  1.0165
 5136TIP3   OH215836   0.283   6.080   5.225 -0.3385 -0.4072 -0.7765
 5136TIP3    H115837   0.241   6.115   5.146 -0.8474  2.1158  0.5656
 5136TIP3    H215838   0.369   6.122   5.227 -0.6008  0.0929  0.3788
 5137TIP3   OH215839   0.312   3.208   3.077  0.5444 -0.1795  0.3546
 5137TIP3    H115840   0.389   3.176   3.125  1.9317  1.4852 -0.6948
 5137TIP3    H215841   0.292   3.138   3.015  0.0275 -1.4433  1.9213
 5138TIP3   OH215842   5.078   3.190   1.779 -0.3305  0.3910  0.0092
 5138TIP3    H115843   5.057   3.129   1.850 -1.4027  0.2409 -0.4408
 5138TIP3    H215844   5.156   3.236   1.811  0.7311 -1.4539  0.2027
 5139TIP3   OH215845   3.260   1.572   5.445 -0.2354 -0.3264 -0.5106
 5139TIP3    H115846   3.355   1.585   5.445 -0.1634 -0.7646 -1.4669
 5139TIP3    H215847   3.235   1.580   5.353 -0.7129 -3.0264 -0.6695
 5140TIP3   OH215848   5.789   2.615   5.807  0.1627  0.3259 -0.1002
 5140TIP3    H115849   5.756   2.529   5.779 -2.0659  1.5149 -1.2421
 5140TIP3    H215850   5.731   2.641   5.879 -0.3024  1.6433 -0.9319
 5141TIP3   OH215851   3.009   0.884   3.940  0.4826 -0.0362  0.3363
 5141TIP3    H115852   2.914   0.882   3.934  0.5294  0.7342 -0.8215
 5141TIP3    H215853   3.029   0.834   4.020 -0.7317 -2.4267 -0.8035
 5142TIP3   OH215854   0.130   1.954   0.793 -0.8364  0.3888  0.2776
 5142TIP3    H115855   0.099   1.911   0.873 -0.3848  0.8714  0.7116
 5142TIP3    H215856   0.065   2.021   0.775 -0.8218  0.4244  0.3587
 5143TIP3   OH215857   0.609   1.143   1.375 -0.0380 -0.6981 -0.0245
 5143TIP3    H115858   0.551   1.219   1.381 -1.5086 -1.7928 -0.0388
 5143TIP3    H215859   0.619   1.129   1.281  0.5841 -0.2678 -0.0250
 5144TIP3   OH215860   1.343   1.567   0.473  0.2792  0.0035  0.1797
 5144TIP3    H115861   1.388   1.482   0.476 -0.8897 -0.5892  1.3267
 5144TIP3    H215862   1.310   1.580   0.561 -1.5325  0.5648 -0.5579
 5145TIP3   OH215863   1.176   1.139   4.412  0.3279  0.3664 -0.4484
 5145TIP3    H115864   1.147   1.128   4.503  4.0987 -1.0338  0.6728
 5145TIP3    H215865   1.238   1.212   4.415 -1.3724  1.9447 -2.4012
 5146TIP3   OH215866   0.085   3.370   4.852 -0.4791  0.1506  0.3675
 5146TIP3    H115867  -0.002   3.381   4.813  0.1786  0.2271 -1.1223
 5146TIP3    H215868   0.140   3.340   4.779  0.8816  0.7227  1.1447
 5147TIP3   OH215869   2.115   3.337   5.812  0.3541 -0.1074  0.6304
 5147TIP3    H115870   2.079   3.425   5.817  2.3975  0.7989  0.0018
 5147TIP3    H215871   2.041   3.279   5.832 -1.7529  1.5812 -1.9382
 5148TIP3   OH215872   5.612   2.111   3.045  0.3342 -0.2441  0.2084
 5148TIP3    H115873   5.692   2.065   3.069 -1.3196 -1.5071  3.7052
 5148TIP3    H215874   5.560   2.047   2.997  0.8806  0.1857 -0.9720
 5149TIP3   OH215875   5.645   3.913   3.475 -0.1668 -0.0300 -0.1812
 5149TIP3    H115876   5.612   3.963   3.400  1.7617  0.2998 -0.8351
 5149TIP3    H215877   5.714   3.857   3.439  1.6665  1.0323  1.5212
 5150TIP3   OH215878   6.029   2.551   4.318 -0.2855 -0.2049 -0.3582
 5150TIP3    H115879   6.061   2.609   4.249  0.4125 -1.3144 -0.9782
 5150TIP3    H215880   6.091   2.561   4.390  0.0049 -0.4158 -0.5808
 5151TIP3   OH215881   2.252   4.520   4.907  0.3860  0.0161 -0.2843
 5151TIP3    H115882   2.267   4.535   4.814  0.3878 -0.5135 -0.3691
 5151TIP3    H215883   2.323   4.567   4.950  0.0294  0.7890 -0.5174
 5152TIP3   OH215884   3.501   4.734   2.686 -0.4320  0.3170  0.5223
 5152TIP3    H115885   3.413   4.715   2.719 -1.5872  0.8946 -2.0660
 5152TIP3    H215886   3.509   4.830   2.692 -0.7283  0.4513 -0.9490
 5153TIP3   OH215887   2.097   2.916   2.587 -0.1717  0.6514  0.2615
 5153TIP3    H115888   2.142   2.832   2.581 -1.1902 -0.0638  2.0805
 5153TIP3    H215889   2.028   2.911   2.520  1.0043  0.8310 -0.9636
 5154TIP3   OH215890   2.631   1.477   5.847  0.1763 -0.1151  0.7607
 5154TIP3    H115891   2.617   1.572   5.850 -0.8236 -0.2266 -0.3058
 5154TIP3    H215892   2.580   1.443   5.921 -0.4190  0.0692  0.4395
 5155TIP3   OH215893   4.297   2.715   4.844  0.3344  0.2538  0.1190
 5155TIP3    H115894   4.261   2.720   4.756 -1.3581  1.1274  0.8349
 5155TIP3    H215895   4.267   2.795   4.888  1.5503  0.0730  1.3444
 5156TIP3   OH215896   0.893   4.187   5.195 -0.1063 -0.0576 -0.4850
 5156TIP3    H115897   0.862   4.128   5.127 -0.4003 -0.7365  0.2278
 5156TIP3    H215898   0.930   4.261   5.148 -0.4234 -0.4624 -1.3774
 5157TIP3   OH215899   5.314   3.997   3.912  0.1823 -0.1123  0.2359
 5157TIP3    H115900   5.370   3.944   3.968  0.4599 -0.4209 -0.3336
 5157TIP3    H215901   5.272   4.058   3.972 -0.0779 -0.9182  0.8866
 5158TIP3   OH215902   5.588   1.723   2.901 -0.0887 -0.0960  0.4451
 5158TIP3    H115903   5.621   1.740   2.989  0.1658 -0.3993  0.4107
 5158TIP3    H215904   5.564   1.809   2.867  1.1360  0.2031  0.2941
 5159TIP3   OH215905   1.504   2.394   3.462 -0.5459 -0.3932  0.4863
 5159TIP3    H115906   1.443   2.384   3.535  0.7075  1.5586  1.8501
 5159TIP3    H215907   1.530   2.486   3.464  1.3248 -0.8468 -0.9650
 5160TIP3   OH215908   2.472   2.532   4.826 -0.1951  0.1129  0.4618
 5160TIP3    H115909   2.549   2.510   4.773 -1.2721 -1.1797 -0.6366
 5160TIP3    H215910   2.501   2.521   4.916  0.4928 -1.9584  0.0322
 5161TIP3   OH215911   5.735   4.747   5.074 -0.2214  0.2542 -0.0530
 5161TIP3    H115912   5.684   4.666   5.086 -0.9525  0.8795  1.1489
 5161TIP3    H215913   5.683   4.799   5.013  1.6780 -1.3693 -3.1933
 5162TIP3   OH215914   2.094   3.917   4.216  0.2774  0.5593  0.2661
 5162TIP3    H115915   2.185   3.947   4.222  0.4974 -0.0639  0.0665
 5162TIP3    H215916   2.072   3.926   4.123  0.1487  0.6778  0.3087
 5163TIP3   OH215917   1.203   3.894   5.502  0.6205 -0.5540 -0.2910
 5163TIP3    H115918   1.191   3.942   5.420 -2.7856 -0.1495  0.3322
 5163TIP3    H215919   1.218   3.962   5.568  1.6121 -0.7632 -0.2940
 5164TIP3   OH215920   5.549   4.948   2.718 -0.3332  0.0178  0.1326
 5164TIP3    H115921   5.583   4.884   2.780  1.1705 -0.6469 -1.3310
 5164TIP3    H215922   5.625   4.976   2.667 -1.2778  1.6029 -0.4825
 5165TIP3   OH215923   1.338   2.890   4.360 -0.1455  0.5743 -0.4636
 5165TIP3    H115924   1.262   2.912   4.415  0.1601 -1.0044  0.6047
 5165TIP3    H215925   1.370   2.975   4.329 -2.2883  1.2755 -0.8707
 5166TIP3   OH215926   5.350   3.698   3.798  0.1844 -0.2131 -0.3454
 5166TIP3    H115927   5.443   3.692   3.819 -0.2443  0.1027  1.7225
 5166TIP3    H215928   5.329   3.791   3.807 -0.2495 -0.2206 -1.2063
 5167TIP3   OH215929   1.631   1.346   3.400 -0.1708  0.3585 -0.3584
 5167TIP3    H115930   1.619   1.385   3.313 -0.0671 -0.6287 -0.8186
 5167TIP3    H215931   1.708   1.391   3.436  0.1400  0.3500 -1.0121
 5168TIP3   OH215932   4.854   1.286   5.155 -0.0271 -0.1590 -0.3664
 5168TIP3    H115933   4.820   1.240   5.232  0.7236  1.8507  1.2180
 5168TIP3    H215934   4.909   1.221   5.111 -1.5278 -1.7475  0.0433
 5169TIP3   OH215935   1.630   2.814   0.737  0.0558  0.1003 -0.3103
 5169TIP3    H115936   1.710   2.827   0.788 -0.3491 -1.8082  0.8552
 5169TIP3    H215937   1.662   2.789   0.650  0.7226 -0.8728  0.2084
 5170TIP3   OH215938   2.076   2.582   3.589 -0.1115  0.2504  0.8848
 5170TIP3    H115939   2.003   2.558   3.533  0.2680 -0.9970  0.9081
 5170TIP3    H215940   2.078   2.678   3.587 -1.8571  0.2949  1.0474
 5171TIP3   OH215941   5.831   1.184   3.261  0.1619  0.2845  0.0989
 5171TIP3    H115942   5.803   1.202   3.351  0.2052  1.1354 -0.0556
 5171TIP3    H215943   5.925   1.168   3.269 -0.3211 -2.5903  0.6191
 5172TIP3   OH215944   4.409   5.968   2.895 -0.0107  0.0698 -0.3139
 5172TIP3    H115945   4.320   6.003   2.902 -0.4215 -0.5478 -2.1164
 5172TIP3    H215946   4.447   6.013   2.819  0.4619 -1.2263 -0.8589
 5173TIP3   OH215947   0.864   1.670   6.044  0.0467  0.0001  0.1693
 5173TIP3    H115948   0.801   1.742   6.034  1.0187  0.7479 -0.6419
 5173TIP3    H215949   0.856   1.620   5.963 -0.3868 -0.6161  0.5926
 5174TIP3   OH215950   6.055   2.925   2.900 -0.1593 -0.3743  0.1091
 5174TIP3    H115951   5.994   2.920   2.827 -1.7447 -1.4466  1.4567
 5174TIP3    H215952   5.999   2.932   2.977  1.4743  0.5499  1.2524
 5175TIP3   OH215953   5.744   3.016   4.720 -0.0000 -0.1663  0.6215
 5175TIP3    H115954   5.783   2.929   4.734  1.0351  0.3798  1.2304
 5175TIP3    H215955   5.669   3.000   4.664  1.1180 -1.2621 -0.6045
 5176TIP3   OH215956   0.071   4.100   3.441  0.5741 -0.2979  0.9764
 5176TIP3    H115957   0.053   4.017   3.396 -1.4403  0.3758  0.4622
 5176TIP3    H215958   0.061   4.167   3.372  0.2071  0.5260  1.8180
 5177TIP3   OH215959   5.504   3.877   0.213 -0.3680 -0.2119 -0.1747
 5177TIP3    H115960   5.530   3.858   0.123  0.0295 -0.0257 -0.0997
 5177TIP3    H215961   5.512   3.793   0.259 -0.7920 -0.3574 -0.3658
 5178TIP3   OH215962   0.832   1.769   2.771 -0.0350 -0.2395 -0.1499
 5178TIP3    H115963   0.832   1.853   2.724  0.0790 -0.4614 -0.5458
 5178TIP3    H215964   0.759   1.777   2.833  0.8651  0.6972  0.8050
 5179TIP3   OH215965   1.625   4.398   5.607 -0.2307  0.1541  0.5056
 5179TIP3    H115966   1.703   4.425   5.655  0.5051 -1.0014 -0.0128
 5179TIP3    H215967   1.564   4.471   5.617  0.9771  1.1441  0.7808
 5180TIP3   OH215968   0.705   3.597   5.297 -0.0852  0.0888 -0.3325
 5180TIP3    H115969   0.628   3.541   5.290 -0.5484  0.7115 -0.2510
 5180TIP3    H215970   0.707   3.623   5.389 -0.8511  1.5740 -0.7208
 5181TIP3   OH215971   4.079   1.303   0.184  0.0620  0.0565  0.3682
 5181TIP3    H115972   4.157   1.250   0.169 -0.3382 -0.1872 -0.9475
 5181TIP3    H215973   4.019   1.277   0.114 -0.1136  2.2943 -0.3491
 5182TIP3   OH215974   0.583   5.333   5.737 -0.2345  0.0311 -0.0816
 5182TIP3    H115975   0.560   5.240   5.740  1.2963 -0.3360  1.3275
 5182TIP3    H215976   0.558   5.367   5.823 -0.5214  0.8457 -0.4852
 5183TIP3   OH215977   1.038   2.298   5.306 -0.1006 -0.1464 -0.2538
 5183TIP3    H115978   1.095   2.222   5.291  1.0698  0.7251 -0.2103
 5183TIP3    H215979   1.017   2.329   5.218 -0.1863 -0.2211 -0.2605
 5184TIP3   OH215980   1.847   4.060   5.505 -0.6494 -0.0373  0.1173
 5184TIP3    H115981   1.865   3.981   5.455 -2.4306  0.3613 -1.2177
 5184TIP3    H215982   1.752   4.059   5.518 -0.5796  1.3929  0.8925
 5185TIP3   OH215983   1.619   2.156   3.961  0.5047 -0.1157  0.0617
 5185TIP3    H115984   1.611   2.250   3.947  1.7619  0.5647  3.4465
 5185TIP3    H215985   1.708   2.144   3.996  0.3219 -2.5338 -0.2000
 5186TIP3   OH215986   1.356   3.660   5.577  0.5564  0.1346 -0.3048
 5186TIP3    H115987   1.434   3.697   5.617  0.3597  0.6942 -0.4386
 5186TIP3    H215988   1.309   3.735   5.541 -1.4057  0.1266  2.0974
 5187TIP3   OH215989   4.793   3.201   4.422  0.1552  0.9609 -1.2593
 5187TIP3    H115990   4.703   3.169   4.424  0.1467  1.0370 -0.1833
 5187TIP3    H215991   4.829   3.167   4.340 -0.0646 -1.2361 -0.4931
 5188TIP3   OH215992   4.478   3.252   3.926 -0.3231  0.5794 -0.1553
 5188TIP3    H115993   4.515   3.182   3.980 -1.9326 -0.1479  0.0379
 5188TIP3    H215994   4.521   3.244   3.842  0.2924  0.0503  0.2085
 5189TIP3   OH215995   5.736   3.471   4.786  0.3192  0.0140  0.2678
 5189TIP3    H115996   5.782   3.489   4.867  0.1225  0.9851  0.1677
 5189TIP3    H215997   5.783   3.520   4.719 -0.2513  0.2095  0.0006
 5190TIP3   OH215998   2.768   1.370   3.835  0.1809  0.1090 -0.2689
 5190TIP3    H115999   2.690   1.401   3.882  1.0126  2.3157 -0.2922
 5190TIP3    H216000   2.839   1.424   3.868  1.0802  0.5764 -2.8443
 5191TIP3   OH216001   4.507   0.592   3.818  0.2604  0.1162  0.6063
 5191TIP3    H116002   4.586   0.540   3.799  0.7401  0.6376  1.1743
 5191TIP3    H216003   4.538   0.681   3.828 -0.7546  0.7783 -1.7688
 5192TIP3   OH216004   1.946   4.221   5.865 -0.3210 -0.2888 -0.0305
 5192TIP3    H116005   1.862   4.210   5.821 -0.4251  1.8113 -0.4225
 5192TIP3    H216006   1.972   4.133   5.890 -2.5495 -0.9799 -0.0771
 5193TIP3   OH216007   1.677   0.378   0.044  0.3165  0.5074  0.3720
 5193TIP3    H116008   1.750   0.337  -0.003  2.3546  2.2124  1.9301
 5193TIP3    H216009   1.637   0.436  -0.020  0.0516 -0.7451 -0.6226
 5194TIP3   OH216010   4.109   4.299   1.200  0.5029 -0.7569 -0.8288
 5194TIP3    H116011   4.056   4.378   1.200 -1.0739 -1.7614  0.9035
 5194TIP3    H216012   4.181   4.318   1.141  0.1727  1.9814 -0.4145
 5195TIP3   OH216013   0.544   0.718   3.166  0.1581 -0.0402 -0.2180
 5195TIP3    H116014   0.531   0.743   3.258 -1.8001  0.6285 -0.6500
 5195TIP3    H216015   0.506   0.630   3.159  0.5231 -0.1890 -0.3328
 5196TIP3   OH216016   0.733   3.116   4.531  0.2227  0.0311 -0.5157
 5196TIP3    H116017   0.789   3.180   4.574  1.1612 -1.6908  0.9035
 5196TIP3    H216018   0.676   3.168   4.474  0.6853  2.1359  0.9002
 5197TIP3   OH216019   1.722   1.988   3.006 -0.8036  0.4890 -0.0895
 5197TIP3    H116020   1.723   2.017   2.915 -0.3258  0.9138  0.0471
 5197TIP3    H216021   1.644   2.029   3.043 -0.9226  0.4282 -0.2748
 5198TIP3   OH216022   5.875   2.329   4.412  0.6360  0.2057  0.0663
 5198TIP3    H116023   5.940   2.379   4.362  0.1996  0.2045 -0.5059
 5198TIP3    H216024   5.908   2.239   4.412  0.5420  0.1692 -0.3882
 5199TIP3   OH216025   4.408   3.701   4.520 -0.0075  0.4565  0.3503
 5199TIP3    H116026   4.361   3.774   4.562 -0.1602  0.8502 -0.4737
 5199TIP3    H216027   4.374   3.623   4.563  0.1074  0.8754  1.2016
 5200TIP3   OH216028   5.113   3.246   3.329  0.7060  0.2749  0.3489
 5200TIP3    H116029   5.033   3.231   3.380  0.8596 -1.0552  0.2023
 5200TIP3    H216030   5.105   3.337   3.300 -0.3251  0.4361  1.0974
 5201TIP3   OH216031   1.884   2.536   3.384  0.1671  0.1936  0.4970
 5201TIP3    H116032   1.804   2.590   3.384 -0.0305 -0.0582 -1.8162
 5201TIP3    H216033   1.907   2.527   3.291  2.1954 -0.7736  1.0712
 5202TIP3   OH216034   0.252   1.806   3.312  0.6286  0.1915  0.1806
 5202TIP3    H116035   0.270   1.712   3.320  0.0183 -0.0844 -1.5595
 5202TIP3    H216036   0.308   1.847   3.379  3.2366 -1.1549 -1.1214
 5203TIP3   OH216037   4.600   1.209   3.867 -0.0323  0.0436  0.3834
 5203TIP3    H116038   4.626   1.189   3.957  1.1425  3.3796  0.8803
 5203TIP3    H216039   4.683   1.222   3.821 -0.6448 -0.5333 -0.9031
 5204TIP3   OH216040   5.218   0.088   1.753  0.4499  0.2787 -0.3185
 5204TIP3    H116041   5.264   0.033   1.818 -1.0057 -0.5493  0.0314
 5204TIP3    H216042   5.188   0.164   1.803 -1.0362 -0.5606  0.0886
 5205TIP3   OH216043   0.081   2.016   3.739 -0.3222  0.1743  0.0869
 5205TIP3    H116044   0.174   1.997   3.753 -0.4855 -1.8645 -1.3354
 5205TIP3    H216045   0.036   1.933   3.758 -1.4716  0.1230 -2.5736
 5206TIP3   OH216046   4.373   2.583   5.125 -0.5427  0.6824  0.4421
 5206TIP3    H116047   4.384   2.627   5.209 -1.0693  1.1630  0.2665
 5206TIP3    H216048   4.381   2.654   5.060  0.7365  0.1803  0.0360
 5207TIP3   OH216049   4.437   6.099   5.487  0.1214  0.0390  0.0836
 5207TIP3    H116050   4.489   6.149   5.550 -0.9084  0.2246  0.7982
 5207TIP3    H216051   4.404   6.025   5.537 -1.2181  0.5193 -0.0760
 5208TIP3   OH216052   3.105   3.733   5.971  0.3219 -0.2596  0.0854
 5208TIP3    H116053   3.165   3.795   6.014  1.5327 -1.6688  0.4894
 5208TIP3    H216054   3.086   3.774   5.886  1.4498  0.4664  0.1617
 5209TIP3   OH216055   1.633   2.894   3.892 -0.1978  0.0481 -0.3814
 5209TIP3    H116056   1.616   2.809   3.933 -0.4713  0.3536  0.1485
 5209TIP3    H216057   1.711   2.927   3.936  0.7440 -0.5672 -1.5870
 5210TIP3   OH216058   0.618   4.335   4.323 -0.0434  0.2150 -0.4944
 5210TIP3    H116059   0.682   4.302   4.387 -1.9705 -1.4176  0.6645
 5210TIP3    H216060   0.631   4.280   4.246  1.3439  1.2710 -1.0372
 5211TIP3   OH216061   2.850   2.986   3.515 -0.0644 -0.7073 -0.1684
 5211TIP3    H116062   2.900   2.957   3.591 -1.5025 -0.8584  0.7426
 5211TIP3    H216063   2.759   2.975   3.541 -0.5746 -2.0022 -2.4017
 5212TIP3   OH216064   1.593   3.091   4.679  0.1079  0.5065  0.5174
 5212TIP3    H116065   1.634   3.078   4.593  1.4612  0.0974  1.2056
 5212TIP3    H216066   1.632   3.023   4.734 -3.3646 -1.5526  0.6013
 5213TIP3   OH216067   2.781   3.273   5.916 -0.0901 -0.2849  0.2206
 5213TIP3    H116068   2.787   3.365   5.892 -1.5185 -0.6120 -1.5147
 5213TIP3    H216069   2.692   3.261   5.948 -0.7570 -1.5442 -1.9460
 5214TIP3   OH216070   4.335   3.901   5.714 -0.0896 -0.5781  0.7208
 5214TIP3    H116071   4.378   3.984   5.735 -0.0178  0.2938 -2.5151
 5214TIP3    H216072   4.284   3.879   5.792  0.8527  1.8683  2.0807
 5215TIP3   OH216073   3.231   0.037   1.158 -0.0062 -0.4950 -0.2297
 5215TIP3    H116074   3.323   0.036   1.131  0.0159 -0.0913 -0.1726
 5215TIP3    H216075   3.208  -0.056   1.168  1.5163 -0.5870  3.5563
 5216TIP3   OH216076   4.094   1.526   5.522 -0.3201 -0.4788  0.0571
 5216TIP3    H116077   4.184   1.503   5.548 -0.4319 -0.8434  0.1230
 5216TIP3    H216078   4.051   1.548   5.605  0.1676  1.3326 -0.1495
 5217TIP3   OH216079   2.718   1.694   0.948 -0.3206 -0.2487  0.0792
 5217TIP3    H116080   2.805   1.717   0.980 -0.8745  0.1716  1.3379
 5217TIP3    H216081   2.713   1.599   0.960 -0.6661 -0.0501  1.6849
 5218TIP3   OH216082   1.318   5.787   5.573 -0.2217  0.1526  0.0909
 5218TIP3    H116083   1.375   5.819   5.642 -2.1350  3.4196  0.2161
 5218TIP3    H216084   1.375   5.730   5.520  2.2994  0.8089  1.9928
 5219TIP3   OH216085   3.517   0.361   3.343 -0.2838 -0.9929  0.8761
 5219TIP3    H116086   3.524   0.287   3.283  0.1794 -0.7169  0.5881
 5219TIP3    H216087   3.588   0.349   3.406  1.1411  0.3468 -0.4373
 5220TIP3   OH216088   1.258   3.621   3.273 -0.4689 -0.5900 -0.1201
 5220TIP3    H116089   1.258   3.534   3.232 -0.9302 -0.7557  0.2291
 5220TIP3    H216090   1.173   3.659   3.250 -0.0469 -0.0089 -0.7349
 5221TIP3   OH216091   2.193   2.096   4.651 -0.0208 -0.6533  0.0979
 5221TIP3    H116092   2.160   2.174   4.695  0.5377  0.2896 -1.1021
 5221TIP3    H216093   2.286   2.115   4.636 -0.4349 -0.4254 -2.4756
 5222TIP3   OH216094   4.959   2.836   4.246  0.0009  0.2702  0.4764
 5222TIP3    H116095   4.950   2.794   4.331 -0.9613 -1.9235 -0.6699
 5222TIP3    H216096   5.040   2.801   4.210  0.6784  1.5921  0.6808
 5223TIP3   OH216097   4.033   5.607   5.597 -0.0060  0.2124  0.1749
 5223TIP3    H116098   3.971   5.599   5.525  0.1385 -0.3877  0.1095
 5223TIP3    H216099   3.978   5.614   5.675 -0.1579  0.3241  0.0592
 5224TIP3   OH216100   3.974   3.129   5.674  0.2317  0.4089  0.4457
 5224TIP3    H116101   3.934   3.043   5.664  1.5411 -0.2135  0.4458
 5224TIP3    H216102   4.040   3.133   5.604  0.6817  1.1130  0.9075
 5225TIP3   OH216103   3.423   1.101   3.356 -0.4047  0.5468  0.0601
 5225TIP3    H116104   3.467   1.167   3.302  2.6809 -0.4226  1.3080
 5225TIP3    H216105   3.408   1.028   3.296  0.1801  0.6808 -0.2620
 5226TIP3   OH216106   4.251   3.879   5.089  0.1137  0.1227  0.3325
 5226TIP3    H116107   4.254   3.916   5.177  2.8786 -2.0490  1.2428
 5226TIP3    H216108   4.338   3.895   5.052 -0.2733 -0.9644 -1.1501
 5227TIP3   OH216109   3.612   3.834   4.283 -0.5035  0.2764 -0.4946
 5227TIP3    H116110   3.646   3.797   4.201  0.0703  1.0265 -0.5960
 5227TIP3    H216111   3.689   3.870   4.327 -1.0333  1.1759 -0.3031
 5228TIP3   OH216112   1.603   1.092   5.788 -0.1181  0.6023  0.6404
 5228TIP3    H116113   1.572   1.081   5.878 -1.1061 -3.2550 -0.0704
 5228TIP3    H216114   1.555   1.169   5.756 -2.7034 -0.2489  2.2273
 5229TIP3   OH216115   2.981   3.660   4.356  0.2026  0.0274  0.1219
 5229TIP3    H116116   2.928   3.617   4.289  1.6255 -1.8366  0.1387
 5229TIP3    H216117   3.055   3.601   4.369  0.1932  0.5717  3.0244
 5230TIP3   OH216118   5.547   3.767   0.541 -0.2247 -0.4320 -0.3213
 5230TIP3    H116119   5.484   3.720   0.485 -0.0184  1.3164 -2.0818
 5230TIP3    H216120   5.493   3.826   0.593 -0.1291  0.6521 -1.4186
 5231TIP3   OH216121   3.965   1.714   1.123 -0.4243 -0.4489  0.4029
 5231TIP3    H116122   3.992   1.715   1.032  1.3762  0.6519  0.9149
 5231TIP3    H216123   3.923   1.800   1.136  0.7932  0.0630  1.0143
 5232TIP3   OH216124   3.011   2.568   1.134 -0.1131  0.5718  0.4110
 5232TIP3    H116125   2.992   2.520   1.215  1.8880 -0.8767  0.0419
 5232TIP3    H216126   2.953   2.529   1.069  0.4627 -0.3314  0.4440
 5233TIP3   OH216127   1.692   3.226   3.074  0.0261  0.1903  0.5828
 5233TIP3    H116128   1.658   3.137   3.068  1.5147 -0.3313 -0.6842
 5233TIP3    H216129   1.760   3.230   3.006  0.6612  1.9800  1.2855
 5234TIP3   OH216130   2.591   4.077   0.943  0.9133  0.1588 -0.1314
 5234TIP3    H116131   2.680   4.061   0.974  1.1761 -0.0862 -1.0101
 5234TIP3    H216132   2.543   4.102   1.022  1.9269  1.0103  0.2332
 5235TIP3   OH216133   4.355   4.153   4.871  0.6161 -0.2159 -0.5923
 5235TIP3    H116134   4.260   4.161   4.870  0.6517  0.3138 -0.1621
 5235TIP3    H216135   4.386   4.244   4.871  1.1006 -0.3774  0.7022
 5236TIP3   OH216136   3.263   4.482   4.925 -0.2830 -0.1885  0.3817
 5236TIP3    H116137   3.200   4.545   4.889 -0.4788  0.8628  2.4933
 5236TIP3    H216138   3.210   4.427   4.983  0.2268 -1.1044 -0.0277
 5237TIP3   OH216139   2.905   2.874   4.755  0.4356  0.2584  0.9146
 5237TIP3    H116140   2.895   2.967   4.736 -0.7487  0.0606  0.5014
 5237TIP3    H216141   2.847   2.830   4.692 -0.6762 -0.6120  2.4996
 5238TIP3   OH216142   2.083   2.943   4.948  0.1271  0.4650  0.2301
 5238TIP3    H116143   2.056   3.033   4.931 -0.1087  0.1692 -0.9817
 5238TIP3    H216144   2.151   2.926   4.883 -0.0135 -0.3289  0.2928
 5239TIP3   OH216145   1.470   1.780   5.099  1.0669  0.4952 -0.6012
 5239TIP3    H116146   1.412   1.846   5.059  1.0566  0.9598  0.1717
 5239TIP3    H216147   1.508   1.825   5.175  1.7590 -0.1008 -0.5931
 5240TIP3   OH216148   3.567   2.621   0.166  0.1855 -0.2556 -0.7894
 5240TIP3    H116149   3.502   2.552   0.149 -1.5916  0.9690  0.8893
 5240TIP3    H216150   3.533   2.698   0.120  0.3155  0.4669  0.3110
 5241TIP3   OH216151   0.862   3.894   3.878 -0.8496 -0.1184  0.2289
 5241TIP3    H116152   0.910   3.931   3.951 -0.5320  0.7650 -0.4227
 5241TIP3    H216153   0.772   3.888   3.909 -0.7449  0.4154  0.6337
 5242TIP3   OH216154   0.400   3.649   5.464  0.0804 -0.0086  0.7242
 5242TIP3    H116155   0.458   3.579   5.433  0.1563  0.4641 -0.2216
 5242TIP3    H216156   0.350   3.674   5.386 -0.9873 -0.0204  1.3995
 5243TIP3   OH216157   4.631   1.770   3.866  0.2953 -0.0029 -0.3777
 5243TIP3    H116158   4.598   1.686   3.837 -2.3289  0.2883  1.5771
 5243TIP3    H216159   4.564   1.833   3.839  1.3362  1.2032 -0.1914
 5244TIP3   OH216160   4.547   2.067   0.053  0.6806  0.6505  0.2346
 5244TIP3    H116161   4.531   2.018   0.133 -1.4550  1.2193  0.1879
 5244TIP3    H216162   4.641   2.085   0.054  0.6927  0.5971  2.5797
 5245TIP3   OH216163   3.653   3.673   3.953 -0.2125 -0.0579  0.1747
 5245TIP3    H116164   3.688   3.584   3.961  1.7107  0.6973  0.4821
 5245TIP3    H216165   3.612   3.675   3.866  0.2555 -1.0753 -0.0752
 5246TIP3   OH216166   3.532   3.375   5.116  0.1258 -0.9304  0.2274
 5246TIP3    H116167   3.513   3.293   5.160 -1.0515 -0.4175  0.6831
 5246TIP3    H216168   3.558   3.349   5.027  1.2551 -1.8775  0.8151
 5247TIP3   OH216169   2.722   3.432   3.846  0.1140  0.4111 -0.0967
 5247TIP3    H116170   2.749   3.376   3.773  1.5260  0.9004  0.0364
 5247TIP3    H216171   2.640   3.393   3.877  0.4512 -0.8687 -0.7719
 5248TIP3   OH216172   3.728   4.025   5.369 -0.6220 -0.3247 -0.6074
 5248TIP3    H116173   3.733   3.933   5.392 -2.6374 -0.0223  1.2369
 5248TIP3    H216174   3.643   4.035   5.325 -0.1486  0.5417 -1.3477
 5249TIP3   OH216175   3.504   2.673   4.686 -0.1588 -0.0611 -0.3509
 5249TIP3    H116176   3.495   2.754   4.636 -2.1088 -0.5761 -0.8939
 5249TIP3    H216177   3.423   2.625   4.668  0.6055 -1.7603  0.6241
 5250TIP3   OH216178   5.104   1.873   3.168 -0.7967 -0.4697 -0.0038
 5250TIP3    H116179   5.060   1.807   3.114  0.1304 -2.8518  2.0557
 5250TIP3    H216180   5.035   1.905   3.227 -0.8067 -0.9397  0.2379
 5251TIP3   OH216181   1.397   1.921   4.378  0.2115  0.3544  0.9648
 5251TIP3    H116182   1.381   1.827   4.387  0.8080  0.0565 -0.8718
 5251TIP3    H216183   1.453   1.943   4.452  3.1445 -1.5359 -0.5787
 5252TIP3   OH216184   3.110   4.304   3.914 -0.0104 -0.2833 -0.2806
 5252TIP3    H116185   3.151   4.317   3.829 -4.0577  3.5688 -1.8527
 5252TIP3    H216186   3.131   4.384   3.963 -1.3279 -0.5188  0.7004
 5253TIP3   OH216187   3.312   2.485   4.325  0.2891  0.1490 -0.0106
 5253TIP3    H116188   3.277   2.444   4.404 -1.2717 -0.6463 -1.0932
 5253TIP3    H216189   3.395   2.524   4.353  0.0802 -0.6964  1.8557
 5254TIP3   OH216190   0.259   1.143   4.043  0.1206 -0.2197 -0.3175
 5254TIP3    H116191   0.323   1.087   4.087 -3.3362 -2.9978  1.3837
 5254TIP3    H216192   0.239   1.211   4.107 -0.2640 -0.6449  0.0183
 5255TIP3   OH216193   2.382   1.938   5.565 -0.3717 -0.1268  0.1882
 5255TIP3    H116194   2.378   1.975   5.476 -1.3676 -0.2417  0.1714
 5255TIP3    H216195   2.472   1.907   5.575 -0.5603 -1.1828 -1.2188
 5256TIP3   OH216196   1.105   2.984   4.477  0.1248 -0.3999 -0.1045
 5256TIP3    H116197   1.112   3.050   4.547  0.5667 -1.8593  1.2465
 5256TIP3    H216198   1.049   2.916   4.513 -1.2444 -0.2563 -1.9257
 5257TIP3   OH216199   2.449   3.240   4.883 -0.3734 -0.1465  0.3501
 5257TIP3    H116200   2.479   3.278   4.800  0.5554  1.8457  1.5668
 5257TIP3    H216201   2.529   3.210   4.926 -0.6672  0.3010  1.2296
 5258TIP3   OH216202   3.940   2.478   0.005  0.6090 -0.1710 -0.1567
 5258TIP3    H116203   3.884   2.415  -0.039  0.5180 -0.6450  0.6246
 5258TIP3    H216204   3.905   2.483   0.094  1.5125 -0.1189  0.2041
 5259TIP3   OH216205   3.439   1.922   6.047  0.3095 -0.3284  0.4097
 5259TIP3    H116206   3.349   1.891   6.036 -0.0462  1.1461 -1.1697
 5259TIP3    H216207   3.434   1.987   6.117  0.6271 -2.1002  2.0928
 5260TIP3   OH216208   2.758   1.209   2.640 -0.5222 -0.0108 -0.2409
 5260TIP3    H116209   2.829   1.145   2.635 -0.1328  0.4084 -0.1139
 5260TIP3    H216210   2.746   1.239   2.550  0.4087  0.9382 -0.0632
 5261TIP3   OH216211   2.815   2.207   4.118 -0.5526  0.0468  0.2147
 5261TIP3    H116212   2.836   2.114   4.118 -0.1294  0.1417  0.5171
 5261TIP3    H216213   2.740   2.215   4.059 -0.3324 -0.4255 -0.1271
 5262TIP3   OH216214   2.957   1.828   4.443  0.0646 -0.7776 -0.0883
 5262TIP3    H116215   3.016   1.810   4.517 -1.3946  0.8631  1.5306
 5262TIP3    H216216   2.920   1.914   4.463 -2.4643 -1.5364 -1.3270
 5263TIP3   OH216217   4.256   3.396   5.492  0.1956 -0.0475  0.1363
 5263TIP3    H116218   4.236   3.303   5.484  1.2704 -0.3264  0.5315
 5263TIP3    H216219   4.309   3.415   5.414  0.1898  0.1745  0.1886
 5264TIP3   OH216220   1.915   1.599   4.378 -0.2700 -0.6421 -0.2065
 5264TIP3    H116221   1.841   1.596   4.438 -0.1044 -0.3925  0.0089
 5264TIP3    H216222   1.987   1.558   4.426  0.3418  1.1356  0.4366
 5265TIP3   OH216223   2.972   1.499   3.288 -0.0447  0.2674  0.6579
 5265TIP3    H116224   2.933   1.572   3.336 -1.3177  1.3021 -1.8052
 5265TIP3    H216225   3.045   1.471   3.342  1.7303  4.6967  0.7834
 5266TIP3   OH216226   2.367   1.623   4.595  0.2194 -0.1184  0.4101
 5266TIP3    H116227   2.455   1.617   4.558  1.1399  2.4585  2.0261
 5266TIP3    H216228   2.381   1.649   4.687 -2.2097  1.1616  0.4675
 5267TIP3   OH216229   1.360   2.333   3.218 -0.1153 -0.2535  0.4462
 5267TIP3    H116230   1.352   2.410   3.162  2.9647 -0.3013 -0.1642
 5267TIP3    H216231   1.365   2.369   3.307 -0.7757  0.1149  0.3341
 5268TIP3   OH216232   2.757   2.160   5.265  0.6318  0.7012  0.3274
 5268TIP3    H116233   2.740   2.253   5.275 -3.6943 -0.0555  1.1897
 5268TIP3    H216234   2.784   2.150   5.173 -0.0846  2.6465 -0.1125
 5269TIP3   OH216235   2.377   2.409   2.138 -0.2816  0.2383  0.0554
 5269TIP3    H116236   2.441   2.394   2.069 -0.3153  2.7443 -0.5609
 5269TIP3    H216237   2.418   2.374   2.217  0.0963 -1.9095 -1.0541
 5270TIP3   OH216238   3.548   0.451   4.196 -0.0387 -0.1314  0.2992
 5270TIP3    H116239   3.592   0.411   4.271  0.7662 -0.3171 -0.2639
 5270TIP3    H216240   3.577   0.542   4.197  0.0804 -0.1660  0.1438
 5271TIP3   OH216241   4.305   1.676   0.803 -0.1407 -0.6309 -0.0803
 5271TIP3    H116242   4.295   1.722   0.886 -2.8898 -1.8268  0.3392
 5271TIP3    H216243   4.316   1.745   0.738 -1.3254  0.4970  0.8790
 5272TIP3   OH216244   3.712   2.581   4.838  0.6115  0.3910 -1.1623
 5272TIP3    H116245   3.635   2.628   4.808  0.2878 -0.0117 -0.9705
 5272TIP3    H216246   3.678   2.498   4.871  0.7802  1.3017  1.4547
 5273TIP3   OH216247   1.653   1.757   3.146  0.1237 -0.0849 -0.2344
 5273TIP3    H116248   1.679   1.832   3.092 -0.6815  1.0674  0.9705
 5273TIP3    H216249   1.734   1.730   3.190  0.0267  1.3360  0.8543
 5274TIP3   OH216250   3.618   0.826   0.853 -0.3094  0.2069 -0.0311
 5274TIP3    H116251   3.677   0.752   0.863 -1.7688 -0.9565  0.0829
 5274TIP3    H216252   3.579   0.838   0.940 -1.4011 -0.0293 -0.4776
 5275TIP3   OH216253   5.910   2.385   4.715  0.1888 -0.1505 -0.4487
 5275TIP3    H116254   5.875   2.396   4.626 -1.5493 -0.0230  0.2217
 5275TIP3    H216255   5.895   2.469   4.758  1.5196 -0.0363 -0.1974
 5276TIP3   OH216256   2.649   3.585   5.578  0.0447  0.4530  0.1427
 5276TIP3    H116257   2.707   3.580   5.501  0.8220 -1.6873  0.8491
 5276TIP3    H216258   2.580   3.521   5.561 -0.5538  0.9705  0.6055
 5277TIP3   OH216259   2.172   2.053   3.759 -0.3621 -0.3381 -0.0063
 5277TIP3    H116260   2.166   2.142   3.793  0.0607 -1.0191  1.9347
 5277TIP3    H216261   2.084   2.034   3.726 -1.1176 -0.0457  1.7703
 5278TIP3   OH216262   4.001   2.044   0.424 -0.3331  0.1364  0.7409
 5278TIP3    H116263   4.092   2.057   0.396 -0.2790 -1.2228  0.2437
 5278TIP3    H216264   3.991   2.101   0.500  0.9130  0.3737  0.7386
 5279TIP3   OH216265   2.015   5.439   0.295  0.1233  0.4027  0.0931
 5279TIP3    H116266   2.054   5.381   0.360 -0.9886  0.0706  0.4748
 5279TIP3    H216267   1.926   5.456   0.328 -1.2745 -1.5961 -2.4895
 5280TIP3   OH216268   2.261   2.071   5.792  0.3560 -0.2805  0.0296
 5280TIP3    H116269   2.229   2.154   5.756 -2.1542 -1.2823 -0.1052
 5280TIP3    H216270   2.288   2.021   5.715 -1.5653 -0.9906 -0.2030
 5281TIP3   OH216271   2.304   1.995   4.217  0.7587 -0.3485  0.0485
 5281TIP3    H116272   2.300   1.910   4.261  1.1612 -0.3990 -0.0093
 5281TIP3    H216273   2.362   1.980   4.142 -1.5729 -0.8127 -1.7038
 5282TIP3   OH216274   2.537   4.212   4.115 -0.4070 -0.0792  0.0297
 5282TIP3    H116275   2.577   4.250   4.193  0.6296  1.8337 -1.4144
 5282TIP3    H216276   2.602   4.149   4.084  0.5416  1.3914 -1.0245
 5283TIP3   OH216277   1.171   2.833   4.136  0.2488 -0.2845 -0.3026
 5283TIP3    H116278   1.162   2.922   4.101 -1.0575  0.1451  1.0720
 5283TIP3    H216279   1.236   2.841   4.206 -1.7072  0.1174  1.5103
 5284TIP3   OH216280   4.810   2.771   5.459 -0.2831  0.5163  0.6247
 5284TIP3    H116281   4.859   2.700   5.500 -0.1994  0.1093 -0.1869
 5284TIP3    H216282   4.829   2.764   5.366  0.1096  1.8960  0.5855
 5285TIP3   OH216283   3.764   2.644   5.911  0.1128  0.0525  0.2540
 5285TIP3    H116284   3.790   2.731   5.940 -1.0662 -0.3210  2.5378
 5285TIP3    H216285   3.815   2.584   5.965  0.9018 -0.7034 -1.2853
 5286TIP3   OH216286   2.742   4.539   3.221 -0.4561  0.3024 -0.1203
 5286TIP3    H116287   2.738   4.633   3.208  1.1070  0.1782 -1.5665
 5286TIP3    H216288   2.801   4.507   3.153  2.4131 -1.2019  2.8916
 5287TIP3   OH216289   3.385   3.339   4.405 -0.6361  0.1971  0.1424
 5287TIP3    H116290   3.463   3.372   4.360 -0.4609 -0.1487  0.1925
 5287TIP3    H216291   3.375   3.397   4.481  3.0202 -3.2979  3.4849
 5288TIP3   OH216292   5.851   3.477   3.820  0.1405 -0.8146 -0.6975
 5288TIP3    H116293   5.843   3.456   3.913 -0.4683 -0.4097 -0.6527
 5288TIP3    H216294   5.944   3.496   3.807 -0.1695  1.5211  0.3500
 5289TIP3   OH216295   4.513   2.694   4.649 -0.3849 -0.7691  0.5717
 5289TIP3    H116296   4.481   2.704   4.738 -0.7273 -1.2140  0.5039
 5289TIP3    H216297   4.592   2.640   4.657  1.5975  2.0863  0.9629
 5290TIP3   OH216298   1.123   1.273   5.956  0.1740 -0.2103 -0.2144
 5290TIP3    H116299   1.159   1.185   5.967 -0.4383 -0.3355  0.9090
 5290TIP3    H216300   1.146   1.318   6.037 -0.8543  0.1766 -0.1236
 5291TIP3   OH216301   5.264   3.666   4.898  0.1635 -0.3143  0.0415
 5291TIP3    H116302   5.172   3.689   4.884 -0.1169 -0.8184  0.9834
 5291TIP3    H216303   5.270   3.574   4.872 -0.4648 -1.3945  3.4832
 5292TIP3   OH216304   2.077   3.122   3.964 -0.0051 -0.1641 -0.6527
 5292TIP3    H116305   2.007   3.178   3.929 -0.6792 -1.7785 -2.0134
 5292TIP3    H216306   2.136   3.182   4.008 -0.9316  1.5633 -1.6830
 5293TIP3   OH216307   2.883   2.611   4.193 -0.3370 -0.1571  0.1605
 5293TIP3    H116308   2.839   2.639   4.113  0.0802  0.7626  0.2473
 5293TIP3    H216309   2.974   2.640   4.183  0.0156 -1.1525  0.4223
 5294TIP3   OH216310   3.304   3.595   3.726 -0.5572 -0.2761  0.0384
 5294TIP3    H116311   3.210   3.601   3.741 -0.6474  1.4695 -1.0547
 5294TIP3    H216312   3.340   3.557   3.806 -2.2671 -1.6807  0.1635
 5295TIP3   OH216313   2.508   4.733   2.649 -0.6871  0.2524  0.1746
 5295TIP3    H116314   2.416   4.717   2.631 -0.1939  0.2476 -2.4243
 5295TIP3    H216315   2.527   4.817   2.607  1.0042 -0.7898 -1.2136
 5296TIP3   OH216316   1.745   2.974   2.036 -0.5284 -0.1683  0.3247
 5296TIP3    H116317   1.661   2.961   1.992  0.1815  1.0000 -1.4135
 5296TIP3    H216318   1.809   2.978   1.966  0.7025  1.1859  1.4895
 5297TIP3   OH216319   1.854   4.426   6.046 -0.9397 -0.0089 -0.2017
 5297TIP3    H116320   1.892   4.373   5.976 -0.8807 -0.3860  0.1123
 5297TIP3    H216321   1.808   4.363   6.101 -1.5301  0.3724 -0.2573
 5298TIP3   OH216322   3.215   1.937   0.112 -0.0233 -0.5059 -0.6725
 5298TIP3    H116323   3.196   2.028   0.133  1.0051 -0.4291 -0.0543
 5298TIP3    H216324   3.130   1.897   0.096 -0.4587  0.6269 -1.1876
 5299TIP3   OH216325   4.819   3.988   0.428  0.6539 -0.0784 -0.5895
 5299TIP3    H116326   4.835   3.974   0.334  0.0746 -0.7617 -0.5945
 5299TIP3    H216327   4.742   3.935   0.446 -1.2498  2.6648 -0.4508
 5300TIP3   OH216328   3.368   2.437   0.118 -0.4949  0.8388 -0.5002
 5300TIP3    H116329   3.308   2.396   0.056 -0.2881  0.2521 -0.3133
 5300TIP3    H216330   3.397   2.366   0.175 -0.0719  1.2260 -0.2229
 5301TIP3   OH216331   3.100   3.657   3.115  0.8743 -0.4231  0.3192
 5301TIP3    H116332   3.023   3.602   3.102  1.6360 -1.6636  0.9469
 5301TIP3    H216333   3.163   3.600   3.159  1.6700  0.9637  1.0209
 5302TIP3   OH216334   5.546   4.439   3.779  0.2175  0.8334  0.0381
 5302TIP3    H116335   5.555   4.529   3.809  3.5525  0.1345  1.3307
 5302TIP3    H216336   5.451   4.426   3.771 -0.4764  3.3428  3.1589
 5303TIP3   OH216337   3.008   3.325   0.587 -0.0011  0.5946 -0.3648
 5303TIP3    H116338   3.068   3.386   0.545 -0.0992  0.9268 -0.0289
 5303TIP3    H216339   2.946   3.381   0.635 -2.0255  0.3604 -2.6165
 5304TIP3   OH216340   5.029   1.364   3.466 -0.3005 -0.0872 -0.4125
 5304TIP3    H116341   5.076   1.376   3.549 -1.6965  1.6159  0.1618
 5304TIP3    H216342   5.095   1.378   3.399  0.3643  0.7129  0.3969
 5305TIP3   OH216343   3.870   4.233   4.181 -0.3132  0.3105 -0.1959
 5305TIP3    H116344   3.806   4.162   4.189  0.9554 -0.7158  1.1503
 5305TIP3    H216345   3.955   4.188   4.180  0.5109  1.8147  0.9129
 5306TIP3   OH216346   1.988   2.687   4.998  0.4703  0.4641  0.4957
 5306TIP3    H116347   2.064   2.634   4.972 -0.6109 -1.0653  0.3384
 5306TIP3    H216348   2.006   2.774   4.962  2.4544  0.3093  1.0543
 5307TIP3   OH216349   4.046   2.382   4.081 -0.2147 -0.3849 -0.6990
 5307TIP3    H116350   4.097   2.350   4.007  1.9379 -0.4109  0.7601
 5307TIP3    H216351   4.069   2.475   4.088  2.9689 -1.2769  2.4990
 5308TIP3   OH216352   1.251   2.324   4.178  0.1622 -0.4183 -0.3633
 5308TIP3    H116353   1.325   2.373   4.142  0.9419 -1.0861  0.3000
 5308TIP3    H216354   1.290   2.241   4.208 -1.0263 -1.2019 -0.9374
 5309TIP3   OH216355   5.547   1.545   4.573  0.2519 -0.1385 -0.2559
 5309TIP3    H116356   5.637   1.529   4.602  0.0240 -1.9146 -0.5007
 5309TIP3    H216357   5.550   1.536   4.477 -0.0218  0.6456 -0.3440
 5310TIP3   OH216358   3.015   2.387   5.318  0.2523 -0.0333 -0.0676
 5310TIP3    H116359   3.067   2.307   5.320 -1.5700 -1.2805 -1.4130
 5310TIP3    H216360   3.063   2.446   5.261  0.3227 -1.1076 -1.1379
 5311TIP3   OH216361   4.417   2.413   3.045  0.3712  0.2726  0.1502
 5311TIP3    H116362   4.420   2.320   3.023 -1.7618  0.2047  0.0010
 5311TIP3    H216363   4.488   2.452   2.994  0.5681 -1.1067 -0.6640
 5312TIP3   OH216364   1.431   2.377   5.092 -0.0521  0.0261  0.6551
 5312TIP3    H116365   1.486   2.299   5.080 -0.5794 -1.0649  4.6003
 5312TIP3    H216366   1.486   2.438   5.140 -1.0328  0.4397  1.2595
 5313TIP3   OH216367   3.897   2.765   0.937  0.3572  0.1757 -0.1514
 5313TIP3    H116368   3.861   2.700   0.998  0.0439  0.2045 -0.3022
 5313TIP3    H216369   3.820   2.799   0.891  0.3919  1.4347  0.6877
 5314TIP3   OH216370   2.922   1.143   3.005  0.3294 -0.2685 -0.2477
 5314TIP3    H116371   2.976   1.155   2.928 -1.1875 -0.5534 -1.3858
 5314TIP3    H216372   2.854   1.081   2.977 -0.8336  0.4098  0.9987
 5315TIP3   OH216373   1.719   1.667   3.544 -0.1143 -0.6045 -0.3322
 5315TIP3    H116374   1.710   1.762   3.558 -0.2806 -0.6596 -0.0462
 5315TIP3    H216375   1.786   1.658   3.477  0.6063 -0.3214  0.3545
 5316TIP3   OH216376   1.453   1.822   3.562 -0.0698 -0.2699 -0.4101
 5316TIP3    H116377   1.546   1.823   3.587  0.3787 -0.0182 -2.0698
 5316TIP3    H216378   1.406   1.830   3.645  1.4010  0.0485  0.4011
 5317TIP3   OH216379   3.559   0.916   3.104  0.1868 -0.0825 -0.3328
 5317TIP3    H116380   3.655   0.913   3.100  0.1431 -1.0444 -0.8070
 5317TIP3    H216381   3.531   0.832   3.067 -0.8299 -0.0305  0.3120
 5318TIP3   OH216382   2.718   1.849   5.370  0.6304 -0.5291 -0.5454
 5318TIP3    H116383   2.712   1.903   5.291 -0.2781 -0.0727 -0.1750
 5318TIP3    H216384   2.765   1.771   5.343  0.4467 -0.3081 -1.5098
 5319TIP3   OH216385   2.282   2.556   1.386 -0.1945  0.3742 -0.3585
 5319TIP3    H116386   2.375   2.575   1.399 -1.0835  3.1255  2.4936
 5319TIP3    H216387   2.262   2.491   1.454 -0.1938 -0.7856 -1.4634
 5320TIP3   OH216388   5.570   2.792   4.164 -0.5700  0.2933  0.4752
 5320TIP3    H116389   5.524   2.708   4.171 -1.1587  0.4944 -0.8560
 5320TIP3    H216390   5.517   2.843   4.104  0.5546  1.1121  0.1685
 5321TIP3   OH216391   2.433   1.028   3.134  0.4451 -0.0780  0.2502
 5321TIP3    H116392   2.515   1.042   3.183  0.5316  2.2535 -0.5072
 5321TIP3    H216393   2.436   0.936   3.109  2.9560  0.0009  0.0718
 5322TIP3   OH216394   3.991   1.938   3.475 -0.5704  0.2556 -0.4359
 5322TIP3    H116395   4.002   2.027   3.440  0.9470  0.8821  1.5436
 5322TIP3    H216396   3.957   1.951   3.563  0.3562 -1.1051  0.1370
 5323TIP3   OH216397   3.388   3.674   0.989 -0.2278 -0.4155  0.2023
 5323TIP3    H116398   3.447   3.617   0.939  0.7317  1.4902 -0.9006
 5323TIP3    H216399   3.445   3.744   1.021 -1.3468 -0.1905  1.7318
 5324TIP3   OH216400   3.154   3.052   5.057 -0.1781  0.8148 -0.4682
 5324TIP3    H116401   3.160   3.062   4.962 -0.1685  0.1368 -0.5477
 5324TIP3    H216402   3.237   3.012   5.082 -0.0021  1.4016 -0.1142
 5325TIP3   OH216403   4.583   0.770   3.354 -0.2339 -0.0521  0.5772
 5325TIP3    H116404   4.496   0.737   3.331  0.1254 -0.2749 -0.5183
 5325TIP3    H216405   4.634   0.692   3.377  0.0936 -0.0931 -0.2434
 5326TIP3   OH216406   1.735   1.422   1.349 -0.3062 -0.0236 -0.3974
 5326TIP3    H116407   1.755   1.434   1.256  0.7318  0.3602 -0.1335
 5326TIP3    H216408   1.734   1.327   1.361  1.2226 -0.0713 -0.4660
 5327TIP3   OH216409   3.483   4.770   3.485  0.4969 -0.2434 -0.0056
 5327TIP3    H116410   3.576   4.791   3.496  0.5642 -1.9110  3.2274
 5327TIP3    H216411   3.440   4.816   3.558 -1.4543  1.6154 -2.2277
 5328TIP3   OH216412   2.300   3.617   0.154  0.1467 -0.4487  0.3807
 5328TIP3    H116413   2.339   3.658   0.077  1.6081 -0.8742  0.8784
 5328TIP3    H216414   2.357   3.642   0.226  0.4113 -2.3948  0.8695
 5329TIP3   OH216415   4.140   2.252   5.287 -0.3774  0.4892  0.5212
 5329TIP3    H116416   4.184   2.221   5.366 -1.2067  0.5902  1.0270
 5329TIP3    H216417   4.102   2.337   5.313 -2.4874 -0.4696  0.6592
 5330TIP3   OH216418   2.355   3.712   5.804  0.0890  0.4231 -0.3494
 5330TIP3    H116419   2.417   3.762   5.751  0.3163 -0.6577 -1.1225
 5330TIP3    H216420   2.342   3.630   5.755  0.6650 -0.7987  1.5071
 5331TIP3   OH216421   4.857   4.873   1.498 -0.2726 -0.0626  0.5645
 5331TIP3    H116422   4.849   4.780   1.519  1.0478 -0.3826 -0.2954
 5331TIP3    H216423   4.914   4.908   1.567  2.0877 -0.6263 -1.0286
 5332TIP3   OH216424   2.949   3.302   5.156 -0.5294  0.9050  0.1974
 5332TIP3    H116425   2.863   3.284   5.193 -1.1443 -0.9671 -2.0449
 5332TIP3    H216426   2.981   3.216   5.126  1.9360  1.6332  0.6097
 5333TIP3   OH216427   3.842   2.537   4.218  0.3530  0.1055  0.0695
 5333TIP3    H116428   3.840   2.596   4.142 -0.1193  0.6879  0.5329
 5333TIP3    H216429   3.909   2.473   4.196  0.5215  0.5242 -0.6602
 5334TIP3   OH216430   2.811   3.080   5.492  0.4354 -0.7418 -0.4003
 5334TIP3    H116431   2.898   3.041   5.480  0.2328 -1.1328 -0.5965
 5334TIP3    H216432   2.792   3.068   5.585  1.1770  0.5675 -0.0722
 5335TIP3   OH216433   3.769   2.108   5.537  0.3843 -0.2071  0.2479
 5335TIP3    H116434   3.693   2.071   5.582 -1.1564 -1.4907 -3.2510
 5335TIP3    H216435   3.843   2.058   5.570 -0.6835 -0.9795  1.4982
 5336TIP3   OH216436   3.912   4.107   4.513 -0.0754  0.4163  0.6462
 5336TIP3    H116437   3.824   4.138   4.531 -0.3370  0.2558 -0.3277
 5336TIP3    H216438   3.900   4.019   4.479  0.2663  1.3696 -2.0400
 5337TIP3   OH216439   2.754   2.892   0.456 -0.0661  0.0802 -0.6502
 5337TIP3    H116440   2.672   2.939   0.444  0.9263  1.4171 -2.4407
 5337TIP3    H216441   2.747   2.816   0.398 -0.8821 -0.9881  0.8055
 5338TIP3   OH216442   2.618   3.268   4.415 -0.0488 -0.1036 -0.4866
 5338TIP3    H116443   2.661   3.184   4.434 -1.5360 -1.0382 -1.1808
 5338TIP3    H216444   2.685   3.318   4.369  1.4691 -0.2043  1.5343
 5339TIP3   OH216445   3.247   1.196   0.629  0.0418  0.1502  0.0956
 5339TIP3    H116446   3.262   1.215   0.721 -2.8875 -0.7246  0.7986
 5339TIP3    H216447   3.165   1.241   0.608  0.5879  0.2098 -2.0453
 5340TIP3   OH216448   2.902   4.099   4.301  0.1001  0.2301  0.4282
 5340TIP3    H116449   2.952   4.025   4.335 -1.7703 -1.1895  0.1425
 5340TIP3    H216450   2.966   4.149   4.250  1.1451 -1.7755 -0.2816
 5341TIP3   OH216451   3.406   1.134   6.016 -0.5808  0.4431  1.0141
 5341TIP3    H116452   3.387   1.056   6.067 -0.9133  0.7550  1.3689
 5341TIP3    H216453   3.424   1.202   6.081 -0.6067  0.7392  0.7136
 5342TIP3   OH216454   4.685   3.126   5.434  0.0262  0.1328 -0.4552
 5342TIP3    H116455   4.740   3.074   5.376  1.3827  1.0326 -0.0031
 5342TIP3    H216456   4.735   3.133   5.515 -1.4907 -0.4240  0.5492
 5343TIP3   OH216457   3.358   2.010   0.754  0.2834  0.0504 -0.1203
 5343TIP3    H116458   3.402   1.928   0.732 -2.3453 -1.5965  0.6217
 5343TIP3    H216459   3.309   1.991   0.834 -0.8195  2.1711 -0.2593
 5344TIP3   OH216460   4.202   5.510   1.712 -0.6812  0.0992  0.4884
 5344TIP3    H116461   4.276   5.456   1.685 -1.0047  0.2239 -0.6777
 5344TIP3    H216462   4.128   5.449   1.719 -1.3030  0.5231 -1.8872
 5345TIP3   OH216463   2.882   1.633   4.258  0.0272  0.1694 -0.1680
 5345TIP3    H116464   2.828   1.555   4.269  0.9175 -0.5033 -0.4578
 5345TIP3    H216465   2.899   1.663   4.347 -0.3609  0.0673 -0.0567
 5346TIP3   OH216466   4.842   1.392   4.612  0.3754 -0.4930  0.0888
 5346TIP3    H116467   4.882   1.363   4.694 -0.3293 -0.8857  0.3028
 5346TIP3    H216468   4.748   1.386   4.629  0.2268  0.4258 -0.3931
 5347TIP3   OH216469   1.408   3.440   4.116 -0.4182 -0.8356 -0.6350
 5347TIP3    H116470   1.440   3.441   4.206 -0.4362  0.6436 -0.6451
 5347TIP3    H216471   1.316   3.463   4.123 -0.0746  0.7500 -1.1615
 5348TIP3   OH216472   3.315   6.060   3.646 -0.7278  0.0286  0.1034
 5348TIP3    H116473   3.251   6.027   3.710 -1.1635 -2.3547 -1.4990
 5348TIP3    H216474   3.394   6.076   3.697 -0.7474 -2.8074  1.1054
 5349TIP3   OH216475   3.725   0.943   5.520 -0.2691 -0.0632 -0.3857
 5349TIP3    H116476   3.738   0.996   5.599  1.2376 -1.7518  0.5374
 5349TIP3    H216477   3.631   0.943   5.506 -0.5776  0.0800  1.5689
 5350TIP3   OH216478   4.928   4.518   4.243 -0.0325 -0.2590 -0.4926
 5350TIP3    H116479   4.900   4.437   4.199  0.6506 -1.5118  1.3458
 5350TIP3    H216480   4.870   4.585   4.207 -0.8828 -1.6203 -1.7438
 5351TIP3   OH216481   0.462   0.324   4.989 -0.1815 -0.2538  0.4191
 5351TIP3    H116482   0.450   0.229   4.996  0.6834 -0.4412 -0.4838
 5351TIP3    H216483   0.496   0.350   5.075  0.7211 -0.9561  0.2884
 5352TIP3   OH216484   2.776   4.144   2.941 -0.3894  0.0679 -0.4608
 5352TIP3    H116485   2.806   4.104   3.023  0.5173  1.4490 -0.1007
 5352TIP3    H216486   2.835   4.217   2.927  0.5047 -1.1078 -3.2315
 5353TIP3   OH216487   3.205   5.446   0.106  0.1883 -0.2549  0.1157
 5353TIP3    H116488   3.284   5.499   0.097  0.3885 -0.6615 -0.5956
 5353TIP3    H216489   3.178   5.458   0.197  0.2775  0.9962 -0.0141
 5354TIP3   OH216490   3.319   0.126   4.268 -0.9077  0.3530 -0.7298
 5354TIP3    H116491   3.279   0.209   4.243  0.8937  1.7990  1.0544
 5354TIP3    H216492   3.245   0.065   4.276 -2.5386  2.4555  0.6121
 5355TIP3   OH216493   3.097   4.101   4.572  0.0489 -0.5329 -0.4836
 5355TIP3    H116494   3.101   4.018   4.525  0.5193 -0.8333  0.0804
 5355TIP3    H216495   3.141   4.084   4.656 -1.5065 -0.2366  0.4194
 5356TIP3   OH216496   3.702   3.298   0.706  0.7301  0.4082  0.1058
 5356TIP3    H116497   3.607   3.309   0.714  0.7962  0.1699  1.2864
 5356TIP3    H216498   3.713   3.216   0.658  0.3391  0.8067 -0.6815
 5357TIP3   OH216499   4.640   2.974   4.854  0.2303 -0.0313  0.4977
 5357TIP3    H116500   4.580   2.951   4.925  0.1006 -0.7649  0.1549
 5357TIP3    H216501   4.612   3.062   4.828 -0.1803 -0.0443  0.8761
 5358TIP3   OH216502   0.186   0.966   3.423 -0.5344 -0.1458 -0.8844
 5358TIP3    H116503   0.167   0.993   3.512 -2.4996 -2.5239 -0.5370
 5358TIP3    H216504   0.269   0.917   3.430  0.7982  2.0548 -0.8597
 5359TIP3   OH216505   0.877   3.588   4.863 -0.0388 -0.5444  0.5101
 5359TIP3    H116506   0.886   3.624   4.952 -0.2942 -1.2961  0.8493
 5359TIP3    H216507   0.963   3.601   4.823 -0.3744  1.1908  0.3362
 5360TIP3   OH216508   5.132   3.298   4.530  0.6398 -0.1554 -0.0876
 5360TIP3    H116509   5.119   3.203   4.534 -0.0436 -0.0249  1.2648
 5360TIP3    H216510   5.225   3.310   4.546  0.9431 -0.6508 -1.4024
 5361TIP3   OH216511   2.560   5.130   4.577  0.4746  0.0240  0.1616
 5361TIP3    H116512   2.618   5.086   4.515  1.2820  0.0651  0.8758
 5361TIP3    H216513   2.591   5.220   4.580  2.3900 -0.6562  2.8588
 5362TIP3   OH216514   3.971   1.680   4.332 -0.4239  0.1154  0.1528
 5362TIP3    H116515   3.963   1.720   4.246 -1.4740 -1.0207 -0.2852
 5362TIP3    H216516   4.035   1.610   4.320 -0.7737 -0.2197  0.2266
 5363TIP3   OH216517   2.539   5.451   0.525 -0.6154 -0.6803  0.2206
 5363TIP3    H116518   2.601   5.504   0.575  1.3467 -3.2530  0.6441
 5363TIP3    H216519   2.526   5.499   0.443  0.8107  0.6137  0.7417
 5364TIP3   OH216520   2.124   2.166   0.698  0.1312  0.1279 -0.0793
 5364TIP3    H116521   2.212   2.202   0.702  0.8241 -1.3285 -1.6365
 5364TIP3    H216522   2.129   2.082   0.743 -0.7285  0.5196  0.7738
 5365TIP3   OH216523   3.605   0.078   4.791  0.2492  0.0572  0.2447
 5365TIP3    H116524   3.688   0.124   4.803  0.8911 -0.5936 -1.5688
 5365TIP3    H216525   3.574   0.060   4.880  1.1166  1.9483  0.9518
 5366TIP3   OH216526   5.237   3.303   5.769 -0.3773 -0.2221 -0.3372
 5366TIP3    H116527   5.144   3.327   5.777 -0.2085  0.0261  0.9337
 5366TIP3    H216528   5.247   3.279   5.677 -1.2003  1.8053 -0.9796
 5367TIP3   OH216529   1.324   2.023   5.094  0.7534 -0.4307 -0.1129
 5367TIP3    H116530   1.349   2.068   5.174  1.7491  1.2225 -1.3076
 5367TIP3    H216531   1.264   2.084   5.050  1.8588 -0.3663 -1.5931
 5368TIP3   OH216532   5.087   5.759   6.022 -0.0198  0.2904 -0.1442
 5368TIP3    H116533   5.097   5.793   5.933  0.5584  1.5537  0.3968
 5368TIP3    H216534   5.175   5.728   6.046 -0.1849 -0.0913 -0.0330
 5369TIP3   OH216535   1.696   4.162   5.776  0.1058 -0.1807  0.2428
 5369TIP3    H116536   1.640   4.091   5.807 -1.2348  0.7508 -0.0196
 5369TIP3    H216537   1.667   4.178   5.686  0.7970  0.3025  0.1011
 5370TIP3   OH216538   1.197   1.517   3.549 -0.1447 -0.3034 -0.1574
 5370TIP3    H116539   1.260   1.448   3.529 -0.8602 -0.4022 -2.2680
 5370TIP3    H216540   1.115   1.470   3.564 -0.2688 -0.0214  0.0351
 5371TIP3   OH216541   3.159   1.614   0.661 -0.2861 -0.0587  0.9235
 5371TIP3    H116542   3.224   1.627   0.730  0.6430 -0.0235  0.0526
 5371TIP3    H216543   3.206   1.634   0.579 -1.8397  1.6161  0.4000
 5372TIP3   OH216544   4.630   0.118   3.258 -0.2707  0.1478 -0.0783
 5372TIP3    H116545   4.668   0.032   3.240  0.6143  0.2747  1.0904
 5372TIP3    H216546   4.588   0.143   3.176  0.4850 -0.8756 -0.8017
 5373TIP3   OH216547   0.534   3.388   5.481  0.4344  0.3719 -0.0875
 5373TIP3    H116548   0.572   3.313   5.436 -0.3020  0.7225 -1.3185
 5373TIP3    H216549   0.590   3.402   5.556  2.2257  0.3221 -1.3892
 5374TIP3   OH216550   0.187   1.632   0.289  0.0373  0.1486 -0.1308
 5374TIP3    H116551   0.278   1.605   0.281  0.1086  0.3551 -0.0348
 5374TIP3    H216552   0.192   1.719   0.329 -0.1069  0.9567 -1.8220
 5375TIP3   OH216553   3.517   0.326   0.215 -0.5351  1.3816 -0.6841
 5375TIP3    H116554   3.517   0.311   0.309  1.8318 -2.8569 -1.2326
 5375TIP3    H216555   3.442   0.277   0.183  1.0088 -0.6529 -1.3497
 5376TIP3   OH216556   2.029   1.211   4.259  0.4072  0.0711  1.0489
 5376TIP3    H116557   2.105   1.187   4.311  0.8102  0.4239  0.6206
 5376TIP3    H216558   2.039   1.304   4.242  0.8127 -0.2514 -0.5355
 5377TIP3   OH216559   1.450   2.110   6.020 -0.3710  0.4188 -0.1567
 5377TIP3    H116560   1.509   2.099   5.946  0.1976 -0.3249  0.3889
 5377TIP3    H216561   1.459   2.028   6.070  0.2094  1.3990  1.3868
 5378TIP3   OH216562   3.842   4.316   3.088 -0.2259 -0.5798 -0.0687
 5378TIP3    H116563   3.862   4.404   3.055 -0.4144 -1.6193 -3.0678
 5378TIP3    H216564   3.748   4.305   3.070  0.0443 -1.8137 -0.7256
 5379TIP3   OH216565   3.092   3.902   4.338  0.3468  0.1388 -0.1917
 5379TIP3    H116566   3.067   3.810   4.346 -0.8956  0.4917  0.0696
 5379TIP3    H216567   3.159   3.903   4.269 -0.3478 -0.8296 -0.8909
 5380TIP3   OH216568   2.218   1.187   1.893  0.5325 -0.0770 -0.3515
 5380TIP3    H116569   2.284   1.177   1.825 -0.1465  0.1553 -1.0471
 5380TIP3    H216570   2.153   1.119   1.873  0.8993 -0.7587  0.7283
 5381TIP3   OH216571   4.082   5.284   0.059  0.2326  0.1766 -0.3843
 5381TIP3    H116572   4.055   5.253   0.145  0.3333  0.5963 -0.2002
 5381TIP3    H216573   4.137   5.360   0.077 -0.3981  0.7558 -0.8453
 5382TIP3   OH216574   4.338   3.731   5.492 -0.4310 -1.3117 -0.4268
 5382TIP3    H116575   4.252   3.733   5.451 -0.2898  2.3116 -0.6281
 5382TIP3    H216576   4.335   3.800   5.558  1.4485 -2.9412  1.4558
 5383TIP3   OH216577   4.296   3.853   0.392  0.5056  0.6454 -0.0971
 5383TIP3    H116578   4.211   3.894   0.409 -0.1201 -0.4162 -0.6348
 5383TIP3    H216579   4.347   3.872   0.471  0.0217  1.9174 -0.0761
 5384TIP3   OH216580   4.318   5.240   5.755  0.8722 -0.9423 -0.4577
 5384TIP3    H116581   4.342   5.216   5.666  2.3897  1.8919 -0.8710
 5384TIP3    H216582   4.226   5.266   5.750  0.5787 -2.0544 -0.9163
 5385TIP3   OH216583   3.407   4.340   3.338  0.0224 -0.5006  0.0404
 5385TIP3    H116584   3.324   4.380   3.313  1.0634  1.1816 -0.7746
 5385TIP3    H216585   3.407   4.255   3.293 -0.5200  0.1845 -1.2787
 5386TIP3   OH216586   1.559   2.413   3.890 -0.1227 -0.3307 -0.2737
 5386TIP3    H116587   1.551   2.504   3.919 -0.4599 -0.4202 -0.0780
 5386TIP3    H216588   1.523   2.413   3.801  0.0564 -0.2370 -0.3469
 5387TIP3   OH216589   3.247   4.977   1.529  0.4040 -0.1899 -0.3828
 5387TIP3    H116590   3.273   5.051   1.474 -0.8933  1.9519  1.8247
 5387TIP3    H216591   3.311   4.975   1.600 -1.0929  0.5276  1.0268
 5388TIP3   OH216592   4.203   3.990   3.843  0.0308 -0.9263 -0.1881
 5388TIP3    H116593   4.211   4.022   3.933  2.2490 -0.3555 -0.5500
 5388TIP3    H216594   4.127   4.036   3.808  0.1145  0.0823  0.9076
 5389TIP3   OH216595   2.758   4.681   4.186 -0.2592  0.4737  0.3918
 5389TIP3    H116596   2.688   4.618   4.200 -1.0142  1.7110  2.4295
 5389TIP3    H216597   2.713   4.764   4.169  0.7170  0.8544 -0.4252
 5390TIP3   OH216598   2.424   3.583   1.622  0.2692  0.4023  0.1163
 5390TIP3    H116599   2.513   3.567   1.590 -0.2106  0.6263 -1.3950
 5390TIP3    H216600   2.383   3.635   1.553 -1.2402 -0.2442  0.4956
 5391TIP3   OH216601   2.905   3.406   2.593  0.3774 -0.5590 -0.2529
 5391TIP3    H116602   2.853   3.486   2.585  0.9288 -0.2802 -1.1706
 5391TIP3    H216603   2.968   3.425   2.663  1.4757  0.3637 -1.4701
 5392TIP3   OH216604   5.148   4.663   4.962 -0.0274 -0.2050 -0.0574
 5392TIP3    H116605   5.196   4.619   4.892  2.0639  2.9563 -0.7037
 5392TIP3    H216606   5.092   4.726   4.917 -0.7808 -0.1100  0.9883
 5393TIP3   OH216607   2.970   2.905   3.756 -0.0780 -0.5696 -0.4137
 5393TIP3    H116608   3.047   2.856   3.727  1.1534  1.0835 -0.0038
 5393TIP3    H216609   2.939   2.857   3.833  1.4140 -0.4644  0.2871
 5394TIP3   OH216610   2.435   3.146   1.662 -0.9392 -0.3366  0.2373
 5394TIP3    H116611   2.502   3.161   1.729  1.0144 -2.1890 -1.2479
 5394TIP3    H216612   2.378   3.222   1.669  1.2622  1.2635  1.5917
 5395TIP3   OH216613   4.298   1.915   2.603  0.3788 -0.2179  0.0678
 5395TIP3    H116614   4.371   1.869   2.562 -0.3431 -0.9467 -0.4240
 5395TIP3    H216615   4.252   1.848   2.654 -1.6134 -0.4508 -1.9462
 5396TIP3   OH216616   1.714   3.871   0.562  0.0561 -0.0582 -0.0217
 5396TIP3    H116617   1.800   3.857   0.602 -0.0336 -1.4237 -0.2672
 5396TIP3    H216618   1.692   3.786   0.524 -1.0317  0.5158 -0.6847
 5397TIP3   OH216619   2.288   5.577   3.905  0.3382 -0.4720 -0.3690
 5397TIP3    H116620   2.270   5.487   3.931 -0.4958 -0.2126 -0.0091
 5397TIP3    H216621   2.210   5.604   3.857 -1.1011  1.2948  2.8154
 5398TIP3   OH216622   3.739   2.279   6.004 -0.4512 -0.0419  0.6634
 5398TIP3    H116623   3.658   2.285   5.954  0.7996  2.1776 -1.1558
 5398TIP3    H216624   3.796   2.223   5.951 -0.4978 -0.9353  1.5452
 5399TIP3   OH216625   2.905   2.138   3.704  0.3129 -0.2235 -0.6275
 5399TIP3    H116626   2.997   2.134   3.678  0.2463 -0.7596 -0.8029
 5399TIP3    H216627   2.904   2.113   3.796  0.3867  0.1816 -0.5170
 5400TIP3   OH216628   2.149   1.636   5.776  0.3915 -0.5409 -0.2626
 5400TIP3    H116629   2.154   1.546   5.808  0.0466 -0.6680 -0.5768
 5400TIP3    H216630   2.196   1.635   5.693 -0.2369 -0.5831 -0.6156
 5401TIP3   OH216631   2.246   3.419   4.924  0.0250 -0.3403  0.1892
 5401TIP3    H116632   2.309   3.347   4.923  0.8694  0.3580  1.6345
 5401TIP3    H216633   2.214   3.422   5.014 -2.3273 -0.8765 -0.5977
 5402TIP3   OH216634   0.835   1.964   2.600  0.0771  0.6904  0.3099
 5402TIP3    H116635   0.775   1.956   2.526 -1.6546  0.5570  1.7054
 5402TIP3    H216636   0.840   2.058   2.617 -0.4251  0.6406  0.7422
 5403TIP3   OH216637   3.412   5.216   0.018 -0.0893 -0.0378 -0.4558
 5403TIP3    H116638   3.452   5.130   0.024  1.1344  0.5850  0.7373
 5403TIP3    H216639   3.327   5.207   0.060  0.4385 -0.4477  0.5464
 5404TIP3   OH216640   3.061   4.188   2.849 -0.1205 -0.0959 -0.3508
 5404TIP3    H116641   3.077   4.282   2.864  1.1116 -0.0362 -1.9852
 5404TIP3    H216642   3.096   4.145   2.927  1.6326  0.6053 -0.7335
 5405TIP3   OH216643   0.636   4.463   4.691 -0.1462 -0.4245 -0.0103
 5405TIP3    H116644   0.582   4.387   4.713  1.2626 -1.4060  0.1418
 5405TIP3    H216645   0.707   4.426   4.638  0.0791  0.9267 -0.6589
 5406TIP3   OH216646   5.041   1.764   1.149 -0.0572 -0.2387 -0.4311
 5406TIP3    H116647   5.009   1.709   1.220  1.4289 -1.9270 -1.0117
 5406TIP3    H216648   4.985   1.743   1.075 -1.7798  1.7199  0.2630
 5407TIP3   OH216649   3.027   4.013   5.532 -0.4593  0.3110  0.2671
 5407TIP3    H116650   3.074   4.048   5.456  0.2044 -1.8386 -0.3625
 5407TIP3    H216651   2.974   4.086   5.564  0.5356  1.7235 -1.2481
 5408TIP3   OH216652   2.124   2.070   4.973 -0.0722 -0.0037  0.2074
 5408TIP3    H116653   2.056   2.022   4.925  0.4600 -0.0440 -0.5071
 5408TIP3    H216654   2.204   2.020   4.958 -0.0321 -0.4398  1.7650
 5409TIP3   OH216655   5.301   3.096   4.307  0.2730  0.8371  0.2516
 5409TIP3    H116656   5.268   3.019   4.261 -1.0530  1.3119  0.4060
 5409TIP3    H216657   5.351   3.144   4.240 -0.5442  0.8429 -0.3656
 5410TIP3   OH216658   3.823   2.937   0.238 -0.6111  0.0933 -0.0482
 5410TIP3    H116659   3.914   2.925   0.263 -0.6050  0.2281 -0.0081
 5410TIP3    H216660   3.775   2.939   0.321 -0.1207  4.8451  0.2507
 5411TIP3   OH216661   4.347   5.809   5.157 -0.4311 -0.0257  0.3320
 5411TIP3    H116662   4.387   5.781   5.074  1.0324  0.1371  0.9587
 5411TIP3    H216663   4.415   5.792   5.223 -1.2208  0.7412  1.3521
 5412TIP3   OH216664   5.101   2.844   4.509 -0.4157  0.2841 -0.2577
 5412TIP3    H116665   5.022   2.887   4.541  0.9001  0.4768  2.8710
 5412TIP3    H216666   5.084   2.751   4.520 -0.2691  0.3204  0.2894
 5413TIP3   OH216667   3.736   2.369   5.620 -0.1653  0.2994  0.4605
 5413TIP3    H116668   3.760   2.277   5.606 -0.0941  0.5574 -1.1219
 5413TIP3    H216669   3.666   2.385   5.557 -2.0536  0.5893  2.5640
 5414TIP3   OH216670   1.712   3.041   4.417 -0.2537 -0.5023 -0.4495
 5414TIP3    H116671   1.807   3.040   4.399 -0.2777 -0.1515 -0.5977
 5414TIP3    H216672   1.678   3.107   4.357 -0.6541 -0.9268 -0.6949
 5415TIP3   OH216673   4.220   1.734   6.081  0.6960  0.2493  0.7518
 5415TIP3    H116674   4.241   1.678   6.006  1.1436 -0.4840  1.4084
 5415TIP3    H216675   4.184   1.674   6.146  2.2127  0.5271  1.8818
 5416TIP3   OH216676   3.926   0.096   2.866 -0.6438 -0.0846  0.1695
 5416TIP3    H116677   3.920   0.001   2.878 -0.2425  0.1839  2.8143
 5416TIP3    H216678   3.836   0.128   2.870 -0.5911 -0.1117  1.5810
 5417TIP3   OH216679   4.331   2.359   2.587  0.3246 -0.5632  0.6053
 5417TIP3    H116680   4.362   2.444   2.621 -0.0693 -0.2333  0.1510
 5417TIP3    H216681   4.320   2.305   2.665 -0.4441  0.1438  0.9982
 5418TIP3   OH216682   3.967   1.402   2.174 -0.2490  0.1229 -0.6808
 5418TIP3    H116683   3.883   1.443   2.192 -0.8711 -1.0299 -0.8729
 5418TIP3    H216684   4.024   1.432   2.245 -1.2712 -0.3426  0.3563
 5419TIP3   OH216685   2.564   4.775   3.504  0.1641 -0.4346  0.4947
 5419TIP3    H116686   2.604   4.690   3.523 -0.8583 -1.2354 -0.8491
 5419TIP3    H216687   2.543   4.771   3.411  0.0816  1.2918  0.4308
 5420TIP3   OH216688   5.133   0.790   0.333  0.2048  0.3550  0.3885
 5420TIP3    H116689   5.110   0.879   0.359  0.2616  0.4255  0.1997
 5420TIP3    H216690   5.087   0.734   0.395 -0.2374  0.5033  0.1934
 5421TIP3   OH216691   5.747   2.466   3.736 -0.3173  0.2226 -0.6426
 5421TIP3    H116692   5.687   2.409   3.688 -0.7995  0.8024 -0.7361
 5421TIP3    H216693   5.715   2.466   3.826 -0.2951  0.3117 -0.6340
 5422TIP3   OH216694   3.471   2.221   2.004  0.3654  0.4915 -0.4912
 5422TIP3    H116695   3.413   2.150   1.977  1.7347 -1.6148  1.8695
 5422TIP3    H216696   3.559   2.190   1.984  0.8895  2.2111 -0.9191
 5423TIP3   OH216697   1.096   1.663   0.108 -0.5795 -0.0538  0.8057
 5423TIP3    H116698   1.082   1.583   0.158 -1.3832  0.1519  0.9119
 5423TIP3    H216699   1.029   1.661   0.039  0.7264 -0.5004 -0.4849
 5424TIP3   OH216700   2.958   4.083   3.804  0.3612 -0.2109  0.1595
 5424TIP3    H116701   2.995   4.171   3.799  1.6787 -0.8291 -1.2807
 5424TIP3    H216702   3.031   4.025   3.785 -1.1515 -1.4866 -2.0486
 5425TIP3   OH216703   3.145   3.439   5.861 -0.1210 -0.4117 -1.1712
 5425TIP3    H116704   3.143   3.476   5.773  0.0638 -0.7595 -1.3218
 5425TIP3    H216705   3.121   3.512   5.918  0.0701 -0.1055 -1.4805
 5426TIP3   OH216706   3.934   2.417   4.820 -0.1129  0.1971  0.4702
 5426TIP3    H116707   3.865   2.479   4.795  1.7595  1.6176 -1.3199
 5426TIP3    H216708   3.997   2.469   4.869 -0.1033 -1.0224  1.7746
 5427TIP3   OH216709   3.001   2.070   4.872 -0.0233  0.2231  0.4860
 5427TIP3    H116710   3.038   2.005   4.813 -1.8678  1.4117 -2.1427
 5427TIP3    H216711   2.909   2.077   4.844 -0.3223  2.5596  1.9175
 5428TIP3   OH216712   4.897   3.461   1.747  0.6562  0.0675  0.4167
 5428TIP3    H116713   4.967   3.400   1.770  1.0644  0.5856  0.5517
 5428TIP3    H216714   4.847   3.415   1.680  2.0224  0.2915 -0.7855
 5429TIP3   OH216715   3.580   2.661   3.903  0.6011 -0.2395  0.2728
 5429TIP3    H116716   3.605   2.581   3.857  0.6624 -0.7750  1.2469
 5429TIP3    H216717   3.660   2.688   3.950  0.2137 -0.3118  0.9772
 5430TIP3   OH216718   5.885   2.136   5.396  0.0486  0.0492  0.4191
 5430TIP3    H116719   5.926   2.135   5.482 -0.7503 -0.4004  0.7986
 5430TIP3    H216720   5.911   2.220   5.358  0.4506  0.2237  1.0705
 5431TIP3   OH216721   4.166   2.727   4.595  0.5886  0.3434  0.2658
 5431TIP3    H116722   4.195   2.654   4.540  0.8303  1.2001 -0.7610
 5431TIP3    H216723   4.076   2.705   4.618  1.1517 -1.0220  1.2419
 5432TIP3   OH216724   3.329   4.342   1.124 -0.4982  0.5472 -0.3715
 5432TIP3    H116725   3.420   4.348   1.155 -0.1463 -1.0141 -1.0332
 5432TIP3    H216726   3.337   4.306   1.036 -1.8371 -0.7429  0.0198
 5433TIP3   OH216727   3.527   5.322   4.217  0.2150  0.1813  0.4653
 5433TIP3    H116728   3.610   5.366   4.202  0.6602 -0.6699  0.4313
 5433TIP3    H216729   3.545   5.258   4.286 -0.0854 -0.9007 -0.4358
 5434TIP3   OH216730   5.194   5.541   4.285  0.2630 -0.2744 -0.0001
 5434TIP3    H116731   5.210   5.460   4.333  0.7027  0.5989  1.3725
 5434TIP3    H216732   5.279   5.564   4.247  0.9354  1.1689  2.2409
 5435TIP3   OH216733   4.529   3.670   4.861 -0.5430  0.2362  0.2071
 5435TIP3    H116734   4.586   3.616   4.917  1.6369 -0.9270 -2.9543
 5435TIP3    H216735   4.544   3.760   4.891  0.1892 -0.3956  1.8024
 5436TIP3   OH216736   3.297   0.926   5.076  0.1009 -0.5913 -0.5199
 5436TIP3    H116737   3.320   0.841   5.039 -1.8724 -1.2400 -0.2989
 5436TIP3    H216738   3.256   0.905   5.160  0.1719  0.6253 -0.1661
 5437TIP3   OH216739   3.039   4.405   3.649 -0.2414  0.3148 -0.3114
 5437TIP3    H116740   2.978   4.341   3.614 -0.9750  0.9836 -0.2708
 5437TIP3    H216741   3.093   4.432   3.574  1.4313 -1.8300  0.0705
 5438TIP3   OH216742   0.898   1.876   4.717  0.1675 -0.0783 -0.5901
 5438TIP3    H116743   0.979   1.927   4.721  0.3644 -0.4919  0.7138
 5438TIP3    H216744   0.923   1.796   4.670  1.0300 -1.1271  1.5907
 5439TIP3   OH216745   4.554   1.488   4.052 -0.1768  0.0089 -0.4847
 5439TIP3    H116746   4.535   1.582   4.057  2.2140  0.5070 -0.2043
 5439TIP3    H216747   4.649   1.484   4.039 -0.2298 -2.3822 -0.2334
 5440TIP3   OH216748   5.384   3.465   5.974 -0.3302  0.1735 -0.4525
 5440TIP3    H116749   5.347   3.450   5.888  0.4158 -1.1096 -0.5684
 5440TIP3    H216750   5.475   3.435   5.967 -0.5616 -0.9513  1.0546
 5441TIP3   OH216751   4.290   1.694   2.778 -0.2297  0.8839  0.1563
 5441TIP3    H116752   4.246   1.614   2.804 -0.7597  0.0819 -2.9540
 5441TIP3    H216753   4.382   1.681   2.802 -0.9488  0.9679  3.1312
 5442TIP3   OH216754   4.137   1.488   2.367 -0.6601  0.6930  0.0193
 5442TIP3    H116755   4.202   1.443   2.313  1.2691  0.1342  2.7099
 5442TIP3    H216756   4.172   1.576   2.378 -0.6908  0.5890  0.9447
 5443TIP3   OH216757   5.251   1.491   5.464  0.5723  0.3422 -0.2313
 5443TIP3    H116758   5.314   1.463   5.531  0.8017 -0.7014 -0.8763
 5443TIP3    H216759   5.216   1.410   5.428  0.5214  0.8914 -1.4456
 5444TIP3   OH216760   5.163   2.570   4.577  0.2477 -0.7065 -0.8834
 5444TIP3    H116761   5.135   2.524   4.656 -0.8553 -1.3165 -1.6216
 5444TIP3    H216762   5.189   2.501   4.516  0.4639 -0.2735 -1.2831
 5445TIP3   OH216763   4.903   3.734   5.468  0.0163 -0.0792  0.1137
 5445TIP3    H116764   4.819   3.689   5.461  1.3285 -2.6266  0.3098
 5445TIP3    H216765   4.960   3.671   5.512  2.4034  1.0941 -1.2410
 5446TIP3   OH216766   5.205   4.500   4.769 -0.0397 -0.3836  0.1880
 5446TIP3    H116767   5.166   4.415   4.787 -1.4269  0.0507 -0.6678
 5446TIP3    H216768   5.150   4.537   4.700  0.8419  1.0034  0.2118
 5447TIP3   OH216769   4.120   4.547   5.065  0.3501  0.1396 -0.3184
 5447TIP3    H116770   4.147   4.457   5.085  2.0061  0.6758 -0.1041
 5447TIP3    H216771   4.201   4.592   5.043 -0.5563  1.4273 -1.0766
 5448TIP3   OH216772   5.363   5.116   4.262 -0.0323  0.4680 -0.6581
 5448TIP3    H116773   5.395   5.100   4.350  0.2840 -0.2281 -0.8963
 5448TIP3    H216774   5.436   5.159   4.217 -1.1405  3.3106  0.1970
 5449TIP3   OH216775   4.526   3.219   4.668 -0.6470 -0.3647  0.0697
 5449TIP3    H116776   4.515   3.175   4.584 -0.0069 -1.9033  0.7889
 5449TIP3    H216777   4.620   3.215   4.685 -0.7146  0.3644  0.6508
 5450TIP3   OH216778   5.286   2.407   2.579  0.2100  0.0616 -0.2531
 5450TIP3    H116779   5.306   2.442   2.492 -0.8680  1.9267  0.2192
 5450TIP3    H216780   5.307   2.478   2.639 -1.4352 -0.2976  0.7946
 5451TIP3   OH216781   3.288   3.281   3.853 -0.1126  0.2648 -0.0767
 5451TIP3    H116782   3.279   3.366   3.896  2.2428  0.1955  0.6146
 5451TIP3    H216783   3.338   3.299   3.774  0.6115 -0.5022  0.1967
 5452TIP3   OH216784   3.787   4.322   3.819  0.5656 -0.2378  0.2267
 5452TIP3    H116785   3.800   4.352   3.909 -0.6588  1.2344 -0.0674
 5452TIP3    H216786   3.790   4.402   3.766  1.2680 -1.0795 -1.0505
 5453TIP3   OH216787   4.049   5.263   5.604  0.2517  0.3616 -0.8520
 5453TIP3    H116788   4.055   5.265   5.699  0.1871  0.3909 -0.8491
 5453TIP3    H216789   4.071   5.172   5.580 -0.7070  0.0990 -0.7455
 5454TIP3   OH216790   5.598   1.192   2.672 -0.3602  0.5546 -0.1057
 5454TIP3    H116791   5.604   1.277   2.629  1.0476 -0.1012 -1.2608
 5454TIP3    H216792   5.566   1.211   2.760 -0.1760  2.2596 -0.4029
 5455TIP3   OH216793   4.861   4.704   4.497 -0.7990  0.3710 -0.1407
 5455TIP3    H116794   4.828   4.704   4.408  0.1505  1.3611 -0.5033
 5455TIP3    H216795   4.954   4.680   4.489 -0.1676  2.5138  0.3422
 5456TIP3   OH216796   1.854   5.398   3.044 -0.8239 -0.0780  0.4145
 5456TIP3    H116797   1.858   5.362   3.133 -0.5575 -0.0901  0.3981
 5456TIP3    H216798   1.817   5.485   3.056 -0.5555  0.0161  0.5665
 5457TIP3   OH216799   4.568   4.352   4.856  0.4198  0.0502 -0.0743
 5457TIP3    H116800   4.597   4.311   4.774 -0.5384  2.4727 -1.6649
 5457TIP3    H216801   4.648   4.389   4.894  0.4991  1.0277 -1.1593
 5458TIP3   OH216802   4.797   4.264   4.282  0.5693 -0.0718 -0.1889
 5458TIP3    H116803   4.824   4.187   4.233 -0.4417 -1.0488  0.7509
 5458TIP3    H216804   4.852   4.263   4.360 -0.0894 -0.3818  0.2789
 5459TIP3   OH216805   5.519   3.789   4.808  0.1584  0.0503  0.1533
 5459TIP3    H116806   5.453   3.799   4.740 -0.1752  1.4764  0.6649
 5459TIP3    H216807   5.492   3.712   4.858  0.6127 -1.2339 -1.5367
 5460TIP3   OH216808   5.547   4.340   3.300  0.2439 -0.0982 -0.7121
 5460TIP3    H116809   5.604   4.277   3.344  0.8557  0.0170 -1.3429
 5460TIP3    H216810   5.461   4.326   3.340  0.8013  0.0377  0.5672
 5461TIP3   OH216811   0.257   5.270   4.085  0.3036  0.0396  0.3772
 5461TIP3    H116812   0.177   5.222   4.104  0.2682  0.0624  0.2856
 5461TIP3    H216813   0.327   5.214   4.118  0.2475  0.0429  0.5009
 5462TIP3   OH216814   5.998   2.101   4.329  0.4145 -0.0711 -0.0980
 5462TIP3    H116815   6.025   2.107   4.238  0.7979  0.0864  0.0238
 5462TIP3    H216816   6.053   2.032   4.366 -0.5114 -0.9008 -0.2586
 5463TIP3   OH216817   4.511   5.439   4.023 -0.7505  0.7949  0.3297
 5463TIP3    H116818   4.438   5.447   4.084  0.5956  1.2428  1.9180
 5463TIP3    H216819   4.541   5.349   4.035 -0.6423  0.8057  0.1362
 5464TIP3   OH216820   5.158   2.160   0.274 -0.0554  0.5487  1.1585
 5464TIP3    H116821   5.068   2.191   0.268  0.0491  1.5641  4.0902
 5464TIP3    H216822   5.208   2.235   0.307  1.4038 -0.7298  1.9645
 5465TIP3   OH216823   2.931   2.353   0.199 -0.6071  0.3838  0.2525
 5465TIP3    H116824   2.859   2.305   0.156  0.3887  0.6177 -1.7608
 5465TIP3    H216825   2.944   2.430   0.144  0.9663  0.5110  0.7901
 5466TIP3   OH216826   2.982   0.313   4.014  0.0578 -0.6343 -0.1028
 5466TIP3    H116827   3.006   0.222   3.997  2.8203  0.2449 -1.1607
 5466TIP3    H216828   3.022   0.363   3.943 -1.4519  1.4259  0.4300
 5467TIP3   OH216829   5.804   3.659   3.105 -0.3169 -0.6853  0.4685
 5467TIP3    H116830   5.720   3.668   3.059 -0.4095 -1.1766  0.5449
 5467TIP3    H216831   5.820   3.565   3.108  0.8436 -0.5438 -0.6191
 5468TIP3   OH216832   4.746   1.974   5.803  0.1662  0.2157  0.4509
 5468TIP3    H116833   4.812   1.909   5.779  1.1600  0.9311  1.1906
 5468TIP3    H216834   4.778   2.056   5.764 -0.4861  0.4945  0.4917
 5469TIP3   OH216835   4.737   0.062   1.681 -0.0720 -0.2487  0.1099
 5469TIP3    H116836   4.676   0.060   1.755  1.6896 -0.8675  1.5909
 5469TIP3    H216837   4.760   0.154   1.672  1.1596 -0.3745  1.6127
 5470TIP3   OH216838   3.815   3.847   5.012 -0.0051 -0.0338  0.0100
 5470TIP3    H116839   3.865   3.878   5.087 -0.4215 -0.0871  0.3180
 5470TIP3    H216840   3.828   3.752   5.012 -0.2450 -0.0703  0.2025
 5471TIP3   OH216841   2.997   3.784   1.033 -0.2700 -0.0665  0.0548
 5471TIP3    H116842   3.013   3.723   1.106  0.9668  0.2740  0.0705
 5471TIP3    H216843   3.065   3.763   0.969 -1.1377 -0.1184 -0.8634
 5472TIP3   OH216844   4.382   1.220   3.430  0.3698  0.0516 -0.4196
 5472TIP3    H116845   4.407   1.171   3.509  0.1338  1.6855  0.6960
 5472TIP3    H216846   4.409   1.163   3.357  1.0454 -1.2668  0.8229
 5473TIP3   OH216847   4.434   2.975   0.029  1.2564 -0.0452 -0.2527
 5473TIP3    H116848   4.352   2.960   0.077  1.8422  0.8805  1.0474
 5473TIP3    H216849   4.406   3.006  -0.057  0.2183 -0.7288 -0.1720
 5474TIP3   OH216850   4.305   4.667   0.960  0.0745  0.1891  0.0742
 5474TIP3    H116851   4.328   4.669   0.867  0.1792 -1.0827  0.0632
 5474TIP3    H216852   4.389   4.664   1.006  0.0075 -0.8153  0.1488
 5475TIP3   OH216853   4.064   2.696   5.755 -0.4341  0.4918 -0.1099
 5475TIP3    H116854   3.989   2.754   5.741 -1.2762 -0.5250  0.0922
 5475TIP3    H216855   4.065   2.681   5.850  1.9056  2.9589  0.3090
 5476TIP3   OH216856   5.798   2.713   4.356  0.0396 -0.1870 -0.0538
 5476TIP3    H116857   5.731   2.657   4.394 -0.7580 -0.2762 -1.6007
 5476TIP3    H216858   5.868   2.653   4.330 -0.5789 -0.3955 -1.2113
 5477TIP3   OH216859   1.869   2.980   4.035 -0.0409  0.0506  0.2857
 5477TIP3    H116860   1.869   2.993   4.130  2.5945 -0.2337  0.3590
 5477TIP3    H216861   1.954   3.014   4.006 -0.5749 -0.3895 -1.9125
 5478TIP3   OH216862   4.043   2.725   3.900 -0.2928  0.3239 -0.1116
 5478TIP3    H116863   4.105   2.693   3.966  0.4363 -2.2030 -1.9214
 5478TIP3    H216864   4.096   2.781   3.843 -0.3294  0.4088 -0.0626
 5479TIP3   OH216865   3.668   3.115   4.049  0.1118 -0.2714 -0.0843
 5479TIP3    H116866   3.749   3.092   4.004 -0.2722 -0.7394 -0.5447
 5479TIP3    H216867   3.624   3.031   4.064 -0.3216 -0.0137  0.1001
 5480TIP3   OH216868   4.473   2.992   5.091  0.1821  0.0407 -0.2993
 5480TIP3    H116869   4.384   2.962   5.106  0.2747 -0.3918 -0.6074
 5480TIP3    H216870   4.486   3.062   5.154 -0.4495  0.2469 -0.3962
 5481TIP3   OH216871   0.984   4.778   4.701 -0.0576  0.2841 -0.1415
 5481TIP3    H116872   0.988   4.866   4.739  1.5542 -0.5158  1.6043
 5481TIP3    H216873   0.899   4.744   4.731 -1.1645  1.5710 -1.6797
 5482TIP3   OH216874   2.039   2.674   2.425 -0.4823 -0.2477  0.0655
 5482TIP3    H116875   2.094   2.621   2.367 -1.0750  0.0548 -0.7923
 5482TIP3    H216876   1.958   2.688   2.375 -0.9084  0.2241  0.8736
 5483TIP3   OH216877   3.731   1.106   3.715  0.2769  0.0272  0.0380
 5483TIP3    H116878   3.652   1.064   3.747  0.9447 -1.9420 -0.7639
 5483TIP3    H216879   3.751   1.060   3.633  2.5889  0.0163  0.5519
 5484TIP3   OH216880   4.522   1.943   4.417 -0.2966  0.4672  0.3677
 5484TIP3    H116881   4.457   2.013   4.406 -0.2507  0.5017  0.3182
 5484TIP3    H216882   4.571   1.969   4.495 -0.3667  0.4216  0.4266
 5485TIP3   OH216883   5.103   2.469   2.943 -0.8867  0.0569 -0.0844
 5485TIP3    H116884   5.178   2.497   2.891 -0.1211  0.1171  1.0280
 5485TIP3    H216885   5.135   2.394   2.993 -1.8423 -0.4941 -0.2810
 5486TIP3   OH216886   5.327   5.666   5.428  0.3632 -0.1553  0.4836
 5486TIP3    H116887   5.326   5.759   5.446  0.2373  0.1672 -1.0861
 5486TIP3    H216888   5.402   5.632   5.477  0.9080  0.9033  0.3840
 5487TIP3   OH216889   6.053   4.141   5.902  0.0329  0.3634  0.0212
 5487TIP3    H116890   6.137   4.165   5.861 -0.5210  0.6891 -0.9564
 5487TIP3    H216891   5.995   4.215   5.881 -0.3658  0.3635  1.1120
 5488TIP3   OH216892   3.517   3.783   3.722 -0.1803 -0.1699 -0.5481
 5488TIP3    H116893   3.545   3.819   3.638 -1.0028  1.3534 -0.2076
 5488TIP3    H216894   3.433   3.741   3.704  0.0665 -0.6041 -0.6670
 5489TIP3   OH216895   4.532   2.057   1.687 -0.5759  0.3708 -0.0496
 5489TIP3    H116896   4.440   2.043   1.665  0.2503 -1.4240 -2.6576
 5489TIP3    H216897   4.556   1.982   1.742 -0.4023  0.2353 -0.3057
 5490TIP3   OH216898   4.925   2.577   5.734 -0.4334 -0.5247  0.1977
 5490TIP3    H116899   4.941   2.559   5.641  0.2702  2.5659 -0.3454
 5490TIP3    H216900   4.830   2.569   5.744 -0.4882 -1.1280 -0.7417
 5491TIP3   OH216901   5.378   2.860   3.676 -0.1987 -0.5325 -0.2166
 5491TIP3    H116902   5.308   2.799   3.701 -0.6051 -0.2412 -0.6532
 5491TIP3    H216903   5.415   2.823   3.596  1.8394 -2.0699  1.3523
 5492TIP3   OH216904   0.642   3.149   5.327 -0.0401  0.1598  0.8581
 5492TIP3    H116905   0.709   3.081   5.338  0.0749  0.1520  0.0736
 5492TIP3    H216906   0.562   3.100   5.308  0.0086  0.2375  0.4551
 5493TIP3   OH216907   3.988   2.377   5.761 -0.1597 -0.0612 -0.2460
 5493TIP3    H116908   3.915   2.371   5.700  0.6580 -0.7845 -1.1814
 5493TIP3    H216909   4.017   2.468   5.755 -1.1359  0.2900  0.3144
 5494TIP3   OH216910   2.590   2.369   4.002  0.6146  0.4715 -0.1473
 5494TIP3    H116911   2.505   2.337   3.972  1.0363 -0.7087 -0.0943
 5494TIP3    H216912   2.580   2.381   4.096  0.4599  0.4917 -0.1662
 5495TIP3   OH216913   4.691   3.079   4.024 -0.6478  0.7575 -0.0255
 5495TIP3    H116914   4.769   3.103   4.073  1.3948 -0.7565 -2.3802
 5495TIP3    H216915   4.697   2.984   4.015 -1.1570  0.9464 -2.7771
 5496TIP3   OH216916   6.050   4.192   5.053 -0.4868 -0.0505 -0.3815
 5496TIP3    H116917   6.111   4.191   4.979 -0.4444 -1.5311 -0.3422
 5496TIP3    H216918   5.965   4.170   5.015 -0.1139 -2.9080  0.2571
 5497TIP3   OH216919   4.608   2.275   3.733 -0.2911 -0.4117 -0.0426
 5497TIP3    H116920   4.668   2.296   3.806 -2.0712  0.0130  1.3300
 5497TIP3    H216921   4.666   2.264   3.658  1.5102  0.2448  1.1974
 5498TIP3   OH216922   2.211   3.338   0.164 -0.7114 -0.4682 -0.8204
 5498TIP3    H116923   2.244   3.316   0.251 -1.8975 -1.3734 -0.5810
 5498TIP3    H216924   2.241   3.428   0.149 -0.1502 -0.4487  0.3581
 5499TIP3   OH216925   4.087   2.219   5.009  0.0176  0.2169 -0.2045
 5499TIP3    H116926   4.118   2.307   4.989 -0.0147  0.4097  0.5560
 5499TIP3    H216927   4.103   2.209   5.103 -0.3167 -0.4503 -0.2138
 5500TIP3   OH216928   4.099   3.267   0.657  0.1221  0.1331  0.0504
 5500TIP3    H116929   4.061   3.313   0.732  0.3419 -0.5751  0.6102
 5500TIP3    H216930   4.185   3.307   0.646  0.0591  0.2913  0.1350
 5501TIP3   OH216931   6.083   2.319   3.022  0.4047  0.6675  0.3595
 5501TIP3    H116932   6.135   2.326   3.102 -2.0741  1.4600  1.9481
 5501TIP3    H216933   6.099   2.230   2.991  1.2337  0.2778  1.8759
 5502TIP3   OH216934   0.130   2.330   4.561  0.0009  0.2260 -0.4989
 5502TIP3    H116935   0.130   2.269   4.486  2.7836 -0.2831 -0.1216
 5502TIP3    H216936   0.166   2.279   4.633 -1.3738  1.1507  0.8603
 5503TIP3   OH216937   3.396   4.489   3.719  0.3629 -0.0038  0.4892
 5503TIP3    H116938   3.481   4.470   3.678  0.4536 -0.8550  1.0370
 5503TIP3    H216939   3.385   4.418   3.783  0.4327  1.5291  2.2516
 5504TIP3   OH216940   3.041   5.695   0.868 -0.0065  0.2260  0.3090
 5504TIP3    H116941   3.084   5.766   0.915  1.9832 -1.0074  0.4127
 5504TIP3    H216942   2.961   5.734   0.833  0.4689  2.1893  1.3585
 5505TIP3   OH216943   4.576   4.071   5.681  0.0114  0.3042 -0.8913
 5505TIP3    H116944   4.582   4.155   5.728 -1.0922  0.3786 -0.8601
 5505TIP3    H216945   4.663   4.057   5.645  0.4204  1.0781 -0.2237
 5506TIP3   OH216946   4.813   4.009   5.499  0.1659  0.0328  0.1484
 5506TIP3    H116947   4.865   4.005   5.579 -2.9273 -0.9082  2.2288
 5506TIP3    H216948   4.820   3.921   5.462  0.1809 -0.0461  0.3372
 5507TIP3   OH216949   4.456   3.959   5.409  1.1742 -0.6577  0.2060
 5507TIP3    H116950   4.443   3.986   5.500  1.2773  1.1481 -0.2900
 5507TIP3    H216951   4.441   3.865   5.410  1.7892 -0.7634  2.2101
 5508TIP3   OH216952   5.494   4.032   0.618 -0.6026  0.0779  0.0097
 5508TIP3    H116953   5.574   3.984   0.640 -0.6906 -0.5713 -1.0818
 5508TIP3    H216954   5.522   4.124   0.615  0.9015 -0.4282 -3.7450
 5509TIP3   OH216955   5.003   4.805   5.267 -0.1997  0.7945  0.0634
 5509TIP3    H116956   4.915   4.843   5.270  0.1821  1.6724  0.5212
 5509TIP3    H216957   5.031   4.817   5.176 -0.1838  1.3827  0.1447
 5510TIP3   OH216958   2.914   3.627   3.343 -0.3783  0.4915  0.9697
 5510TIP3    H116959   2.870   3.675   3.273  0.5259  2.2896  1.6133
 5510TIP3    H216960   2.865   3.545   3.349 -1.4002  0.9434 -0.7412
 5511TIP3   OH216961   5.932   4.203   1.838 -0.4318 -0.2016  0.3093
 5511TIP3    H116962   5.852   4.183   1.886 -1.6575  1.8152 -0.8321
 5511TIP3    H216963   5.975   4.271   1.889 -1.1412  1.0935 -0.7739
 5512TIP3   OH216964   4.598   5.815   1.155  0.2953  0.0919 -0.0137
 5512TIP3    H116965   4.676   5.813   1.211 -1.3016  1.1402  2.3185
 5512TIP3    H216966   4.528   5.844   1.213 -1.9809 -1.4728 -1.9323
 5513TIP3   OH216967   4.264   0.160   3.888  0.3350  0.4505  0.1779
 5513TIP3    H116968   4.272   0.247   3.928  2.6347  0.7004 -0.7595
 5513TIP3    H216969   4.244   0.101   3.961 -1.3226  1.7536  0.8147
 5514TIP3   OH216970   3.533   3.984   3.510 -0.1443 -0.2980  0.4633
 5514TIP3    H116971   3.565   4.039   3.439 -0.1480  1.8425  2.0786
 5514TIP3    H216972   3.449   3.951   3.478  0.8378 -1.1063 -1.3749
 5515TIP3   OH216973   3.896   3.234   4.356  0.5363  0.3482  0.4785
 5515TIP3    H116974   3.989   3.209   4.358  0.5851  0.5633  0.7620
 5515TIP3    H216975   3.894   3.317   4.308  0.4971  0.3781  0.5316
 5516TIP3   OH216976   0.014   4.531   3.465  0.4281  0.4386  0.7002
 5516TIP3    H116977   0.006   4.448   3.514 -0.8094  1.0081  1.5029
 5516TIP3    H216978  -0.019   4.510   3.378  2.7009 -0.6060  0.0540
 5517TIP3   OH216979   0.268   4.718   3.466 -0.0417 -0.2124  0.4188
 5517TIP3    H116980   0.315   4.800   3.482 -1.9066  0.9385  0.1704
 5517TIP3    H216981   0.248   4.684   3.553 -1.3149  0.8190  0.5385
 5518TIP3   OH216982   4.773   5.357   5.410  0.1988  0.1130 -0.8688
 5518TIP3    H116983   4.719   5.403   5.346 -2.9276 -0.7891  0.9819
 5518TIP3    H216984   4.802   5.278   5.364 -1.1291 -0.0127 -1.5059
 5519TIP3   OH216985   2.268   3.078   4.738 -0.1273 -0.2838 -0.1244
 5519TIP3    H116986   2.220   3.151   4.699 -1.6190 -1.1200  0.1006
 5519TIP3    H216987   2.329   3.120   4.800 -0.1120  0.8278 -0.8691
 5520TIP3   OH216988   3.705   0.660   4.312 -0.2551 -0.4567  0.2375
 5520TIP3    H116989   3.727   0.751   4.296 -0.0161 -0.2357  1.7946
 5520TIP3    H216990   3.735   0.642   4.401 -1.6865 -1.6050  0.5232
 5521TIP3   OH216991   4.060   3.523   4.814 -0.1076 -0.5385  0.3367
 5521TIP3    H116992   4.141   3.489   4.851  0.4270 -0.3527 -0.6589
 5521TIP3    H216993   4.048   3.608   4.857  1.2462  0.3064 -0.9116
 5522TIP3   OH216994   4.261   1.387   3.656 -0.1095  0.1534  0.6007
 5522TIP3    H116995   4.308   1.373   3.574  0.5654  1.7521  0.6871
 5522TIP3    H216996   4.172   1.359   3.637  0.0940  0.2876 -0.6217
 5523TIP3   OH216997   0.292   3.688   5.236 -0.7869 -0.0980 -0.2911
 5523TIP3    H116998   0.271   3.604   5.195 -0.1848 -0.0286 -0.7408
 5523TIP3    H216999   0.211   3.738   5.228 -0.4528  0.1870 -2.0932
 5524TIP3   OH217000   4.518   2.646   3.605  0.0312 -0.4062 -0.6082
 5524TIP3    H117001   4.601   2.635   3.651 -0.1284  1.9632  0.3204
 5524TIP3    H217002   4.481   2.557   3.599  1.3562 -1.1185  1.3616
 5525TIP3   OH217003   3.655   4.431   3.547  0.5215  0.4118  0.7165
 5525TIP3    H117004   3.594   4.390   3.487 -0.1988  0.1392  1.6231
 5525TIP3    H217005   3.736   4.382   3.537  0.0454 -0.3973  0.8453
 5526TIP3   OH217006   3.092   2.084   4.362  0.1021 -0.1504  0.6952
 5526TIP3    H117007   3.094   2.028   4.284  0.5720  0.6754  0.1098
 5526TIP3    H217008   3.172   2.063   4.409 -0.4879 -1.1149  1.3008
 5527TIP3   OH217009   1.488   1.470   4.736  0.6648  0.2706 -0.7706
 5527TIP3    H117010   1.494   1.506   4.825  1.3779 -0.5305 -0.4850
 5527TIP3    H217011   1.544   1.392   4.738 -0.2266 -0.3998 -1.5986
 5528TIP3   OH217012   4.350   2.645   3.959 -0.5335  0.4780  0.1573
 5528TIP3    H117013   4.370   2.583   3.889 -0.1488  0.9459 -0.1448
 5528TIP3    H217014   4.304   2.592   4.025  1.8840 -0.7002  0.9808
 5529TIP3   OH217015   5.361   4.962   3.974  1.0409  0.1406 -0.1070
 5529TIP3    H117016   5.447   5.000   3.995  0.6731  0.5728  0.6510
 5529TIP3    H217017   5.301   5.002   4.037  0.7954 -2.4347  1.3699
 5530TIP3   OH217018   2.540   1.084   5.348  0.2805 -0.3230 -0.3701
 5530TIP3    H117019   2.563   1.048   5.433  0.6810 -0.2370 -0.4449
 5530TIP3    H217020   2.461   1.036   5.323 -1.5823  1.6915  1.3874
 5531TIP3   OH217021   4.347   0.871   5.494  0.1894 -0.2704  0.3347
 5531TIP3    H117022   4.429   0.901   5.454 -0.3726  0.2290 -0.4759
 5531TIP3    H217023   4.311   0.949   5.536 -0.3327 -0.2605 -0.1257
 5532TIP3   OH217024   4.434   3.716   4.254  0.2575 -0.1695 -0.0904
 5532TIP3    H117025   4.392   3.636   4.223 -0.6296 -0.4933  1.8912
 5532TIP3    H217026   4.429   3.711   4.349  1.9169  1.3424  0.1049
 5533TIP3   OH217027   1.290   4.878   6.089  0.8900 -0.5958 -0.5357
 5533TIP3    H117028   1.200   4.911   6.088  0.8882  0.0076  4.3314
 5533TIP3    H217029   1.342   4.947   6.047 -0.3865  1.0886  0.5798
 5534TIP3   OH217030   5.168   4.188   5.474 -0.4065 -0.4797 -0.3752
 5534TIP3    H117031   5.130   4.255   5.417 -2.4511 -0.9579  0.3509
 5534TIP3    H217032   5.186   4.114   5.415  2.2579  0.8176 -1.2496
 5535TIP3   OH217033   3.912   5.422   0.427 -0.1352 -0.1077  0.2130
 5535TIP3    H117034   3.972   5.357   0.464 -0.8848 -0.4764  0.8111
 5535TIP3    H217035   3.825   5.392   0.455 -0.3150  2.5663  2.7117
 5536TIP3   OH217036   4.753   2.924   2.967  0.6947 -0.0754 -0.1862
 5536TIP3    H117037   4.695   2.981   2.917 -0.7569 -1.7567 -0.4681
 5536TIP3    H217038   4.841   2.952   2.942  0.0420  2.4015  0.1225
 5537TIP3   OH217039   5.240   4.391   3.289  0.1078 -0.0329  0.2751
 5537TIP3    H117040   5.260   4.458   3.224 -0.7962  2.1713  2.2248
 5537TIP3    H217041   5.181   4.331   3.243 -1.2417  1.9857 -0.7010
 5538TIP3   OH217042   0.703   2.156   5.634  0.4694  0.3176  0.4517
 5538TIP3    H117043   0.769   2.144   5.566  0.6549  1.4044  0.4391
 5538TIP3    H217044   0.747   2.204   5.703 -0.5380  1.8262  0.0691
 5539TIP3   OH217045   2.343   5.284   0.405  0.4950 -0.2210  0.2785
 5539TIP3    H117046   2.332   5.225   0.480  0.8686  1.5704  1.7602
 5539TIP3    H217047   2.410   5.346   0.433 -0.7789  1.6569 -0.7914
 5540TIP3   OH217048   5.794   4.281   4.581 -0.4052  0.3746  0.5898
 5540TIP3    H117049   5.776   4.335   4.658  3.4286  2.7246  0.0009
 5540TIP3    H217050   5.761   4.333   4.507  2.2552  1.4693  0.1174
 5541TIP3   OH217051   0.184   2.257   5.045  0.0171 -0.4011 -0.4040
 5541TIP3    H117052   0.252   2.201   5.082 -0.9270 -0.8997  0.6047
 5541TIP3    H217053   0.200   2.256   4.951  1.9893  0.2609 -0.0876
 5542TIP3   OH217054   4.911   3.438   3.600 -0.4937 -0.2967  0.1089
 5542TIP3    H117055   5.006   3.450   3.593 -0.5119 -0.6505 -0.8593
 5542TIP3    H217056   4.885   3.496   3.672 -0.0020  2.3606 -1.7665
 5543TIP3   OH217057   4.035   3.537   0.320  0.3060  0.2820  0.0278
 5543TIP3    H117058   4.040   3.598   0.247 -0.5350  0.0473 -0.2303
 5543TIP3    H217059   4.016   3.592   0.396  1.7038  0.5890  0.1742
 5544TIP3   OH217060   5.755   0.979   0.933  0.2335  0.6272 -0.2324
 5544TIP3    H117061   5.787   0.966   0.844  1.1318 -1.0358  0.3144
 5544TIP3    H217062   5.672   0.932   0.936  0.0012  1.0315 -0.3094
 5545TIP3   OH217063   3.336   1.987   3.831 -0.4506  0.3934  0.2165
 5545TIP3    H117064   3.428   2.015   3.840 -0.2047 -0.2142 -0.3639
 5545TIP3    H217065   3.297   2.005   3.916  0.6803 -1.1038  1.0719
 5546TIP3   OH217066   4.752   4.830   4.731 -0.0440 -0.2363  0.1266
 5546TIP3    H117067   4.731   4.750   4.778  0.7677 -0.7912 -0.4549
 5546TIP3    H217068   4.789   4.801   4.648 -3.4991  0.7225 -1.8188
 5547TIP3   OH217069   2.633   0.665   3.244  0.0447 -0.2908 -0.1137
 5547TIP3    H117070   2.664   0.575   3.249 -1.0997 -0.6190  1.6342
 5547TIP3    H217071   2.540   0.657   3.226  0.1832  0.5874 -1.2743
 5548TIP3   OH217072   3.491   0.868   1.105 -0.1898  0.3660 -0.3619
 5548TIP3    H117073   3.521   0.932   1.169  2.0386  0.5893 -1.5990
 5548TIP3    H217074   3.418   0.823   1.149  1.4286  0.3383  2.4393
 5549TIP3   OH217075   5.561   1.658   1.952 -0.3107  0.0800  0.1474
 5549TIP3    H117076   5.485   1.698   1.995 -1.0886 -2.2449  1.0034
 5549TIP3    H217077   5.636   1.707   1.985 -1.1096 -0.1165  2.3424
 5550TIP3   OH217078   4.733   1.735   2.212  0.0259 -0.4272 -0.2588
 5550TIP3    H117079   4.737   1.820   2.256  1.2332  0.1564 -1.4674
 5550TIP3    H217080   4.686   1.678   2.273  1.0993  0.5405  1.4913
 5551TIP3   OH217081   4.582   3.878   5.884 -0.3559  0.1697 -0.2240
 5551TIP3    H117082   4.612   3.965   5.909  3.3763 -1.2555  0.5736
 5551TIP3    H217083   4.562   3.886   5.790 -0.2723  1.9372 -0.1075
 5552TIP3   OH217084   3.464   2.951   4.156 -0.4309  0.3873  0.4562
 5552TIP3    H117085   3.502   3.007   4.224 -0.7579  0.0040  0.9581
 5552TIP3    H217086   3.382   2.920   4.193 -1.4362  1.5219 -0.7810
 5553TIP3   OH217087   5.073   2.782   0.994 -0.2976  0.2738 -0.2600
 5553TIP3    H117088   5.104   2.692   1.008 -2.1698 -0.5494 -1.1603
 5553TIP3    H217089   5.111   2.832   1.066  1.6163 -1.0304 -0.3267
 5554TIP3   OH217090   0.376   5.592   1.815  0.4551  0.3475 -0.3321
 5554TIP3    H117091   0.435   5.594   1.890 -1.2743 -0.7563  1.0863
 5554TIP3    H217092   0.408   5.520   1.761 -0.5180 -1.2733  1.2214
 5555TIP3   OH217093   4.044   4.060   1.284  0.3931  0.0033  0.2917
 5555TIP3    H117094   4.064   4.150   1.257 -2.9521  1.4327  2.2771
 5555TIP3    H217095   4.030   4.013   1.201  4.8141  0.5273 -0.8764
 5556TIP3   OH217096   4.149   1.790   3.877  0.3985 -0.4776 -0.0209
 5556TIP3    H117097   4.144   1.781   3.782 -2.3103 -1.4547  0.1534
 5556TIP3    H217098   4.148   1.701   3.910  1.5286 -0.1496  0.9257
 5557TIP3   OH217099   1.351   2.317   0.139 -0.0395  0.2683  0.0013
 5557TIP3    H117100   1.365   2.248   0.075  1.0076 -0.6697  1.2005
 5557TIP3    H217101   1.282   2.284   0.196 -2.6478  2.1140 -2.0252
 5558TIP3   OH217102   5.487   1.303   2.905 -0.9168  0.2566  0.0785
 5558TIP3    H117103   5.437   1.374   2.945 -1.2513 -0.5569  1.1446
 5558TIP3    H217104   5.571   1.303   2.952 -0.9445 -0.0892  0.1332
 5559TIP3   OH217105   4.821   4.001   0.124  0.0128  0.2768 -0.3467
 5559TIP3    H117106   4.886   4.067   0.151  1.5602 -1.2165 -0.3496
 5559TIP3    H217107   4.769   4.045   0.057  1.1674  1.4317 -0.5083
 5560TIP3   OH217108   3.260   2.437   1.500  0.1274 -0.0825 -0.2062
 5560TIP3    H117109   3.284   2.345   1.513  1.8828  0.5130  1.0415
 5560TIP3    H217110   3.185   2.451   1.557  0.3906 -0.5373  0.2540
 5561TIP3   OH217111   4.745   2.786   3.998  0.1264 -0.2165  0.2836
 5561TIP3    H117112   4.759   2.727   3.924  0.3292  0.2820 -0.0817
 5561TIP3    H217113   4.822   2.772   4.054  1.2075  1.1534 -0.7987
 5562TIP3   OH217114   2.943   2.430   0.473 -0.7024  0.4432 -1.0783
 5562TIP3    H117115   2.927   2.399   0.383 -1.5822 -1.2701 -0.3575
 5562TIP3    H217116   2.856   2.452   0.506 -0.5131 -0.0006 -0.2742
 5563TIP3   OH217117   3.642   2.625   3.557 -0.0415  0.9480  0.0742
 5563TIP3    H117118   3.714   2.591   3.609 -0.2732  2.4718  1.4306
 5563TIP3    H217119   3.616   2.706   3.601 -3.2482 -0.0866  0.2028
 5564TIP3   OH217120   4.679   3.955   5.224 -0.7217  0.1856 -0.6077
 5564TIP3    H117121   4.610   3.986   5.165 -1.9225 -1.0481  0.1279
 5564TIP3    H217122   4.652   3.983   5.311 -1.3190 -1.9726 -0.0564
 5565TIP3   OH217123   0.096   4.861   4.072  0.0053 -0.2393  0.4203
 5565TIP3    H117124   0.179   4.819   4.095  0.0957  0.0879  0.6931
 5565TIP3    H217125   0.031   4.791   4.080  0.1353 -0.2913  1.0119
 5566TIP3   OH217126   5.627   1.047   4.859  0.2365  0.2833 -0.2605
 5566TIP3    H117127   5.711   1.061   4.903 -0.3178  1.0790  0.5323
 5566TIP3    H217128   5.645   0.976   4.796  0.8189 -1.4414  1.7957
 5567TIP3   OH217129   4.354   4.229   5.440 -0.4730 -0.3199 -0.4780
 5567TIP3    H117130   4.301   4.156   5.406  0.0176 -1.3351  0.9238
 5567TIP3    H217131   4.442   4.193   5.449 -0.7054 -0.2476  2.4145
 5568TIP3   OH217132   3.755   3.473   5.634 -0.7970  0.2657 -0.1268
 5568TIP3    H117133   3.849   3.452   5.636 -1.7012 -3.9934  2.3450
 5568TIP3    H217134   3.749   3.556   5.682  1.4566 -0.6835  1.9275
 5569TIP3   OH217135   3.756   3.927   3.665  0.0488 -0.0087  0.2591
 5569TIP3    H117136   3.697   3.914   3.739  1.1568  1.2932  1.3953
 5569TIP3    H217137   3.702   3.970   3.599 -0.4442  0.5987  1.0524
 5570TIP3   OH217138   5.026   4.293   3.145  0.8820  0.5039  0.2497
 5570TIP3    H117139   5.010   4.212   3.098  0.3255  1.2583 -0.8820
 5570TIP3    H217140   4.948   4.305   3.201  0.6968  0.5568 -0.0186
 5571TIP3   OH217141   0.965   2.507   5.476 -0.2347 -0.1023 -0.5331
 5571TIP3    H117142   1.054   2.537   5.456 -0.3600 -0.5007 -1.7146
 5571TIP3    H217143   0.966   2.414   5.456  0.4117 -1.1902  3.9407
 5572TIP3   OH217144   4.775   4.068   4.878  0.0327  0.0498  0.0863
 5572TIP3    H117145   4.781   4.061   4.782 -0.5730 -0.2952  0.0753
 5572TIP3    H217146   4.833   3.999   4.910 -0.2532 -0.2475 -0.0317
 5573TIP3   OH217147   3.605   4.083   4.197 -0.0931 -0.1996 -0.4948
 5573TIP3    H117148   3.517   4.110   4.220  0.3606 -0.0767  1.1059
 5573TIP3    H217149   3.618   4.001   4.244  0.6433 -0.2176 -0.7230
 5574TIP3   OH217150   5.533   4.793   4.336 -0.0922 -0.0331 -0.5723
 5574TIP3    H117151   5.476   4.790   4.259 -1.1732  1.8614  0.1201
 5574TIP3    H217152   5.517   4.879   4.375  2.2077 -0.0136  0.4401
 5575TIP3   OH217153   5.128   2.381   4.910 -0.2848 -0.2491  0.2979
 5575TIP3    H117154   5.161   2.319   4.845  0.6995  1.0403 -0.4411
 5575TIP3    H217155   5.167   2.352   4.993  1.9365  0.6699 -0.3976
 5576TIP3   OH217156   1.988   2.755   3.930  0.4212  0.2546  0.5346
 5576TIP3    H117157   1.957   2.818   3.995 -2.2459  0.2082 -0.6237
 5576TIP3    H217158   1.926   2.682   3.935  1.3253 -0.6371 -0.7053
 5577TIP3   OH217159   5.351   2.462   5.614 -0.3927  0.6420 -0.1848
 5577TIP3    H117160   5.312   2.474   5.700 -1.2994  1.3922 -0.6987
 5577TIP3    H217161   5.362   2.367   5.607 -1.2027  0.4962  0.3724
 5578TIP3   OH217162   4.974   4.205   0.451  0.1055 -0.5625  0.7080
 5578TIP3    H117163   4.980   4.245   0.365 -2.1825  1.3853  1.3807
 5578TIP3    H217164   4.920   4.127   0.438 -1.8142  0.7246  0.6205
 5579TIP3   OH217165   4.674   4.018   4.416 -0.3532  0.5162  0.8843
 5579TIP3    H117166   4.657   3.998   4.324  1.9981  1.3798  0.2297
 5579TIP3    H217167   4.589   4.045   4.451 -1.0350  1.2655 -1.3193
 5580TIP3   OH217168   5.501   2.625   0.100 -0.3055 -0.3984 -0.0700
 5580TIP3    H117169   5.461   2.607   0.185  1.2004  1.4000  1.0488
 5580TIP3    H217170   5.427   2.640   0.042 -1.3269 -0.5478  1.1572
 5581TIP3   OH217171   4.029   3.335   5.856  0.2168 -0.4767 -0.0423
 5581TIP3    H117172   4.027   3.258   5.800  1.8098  0.0157 -0.8043
 5581TIP3    H217173   4.111   3.379   5.834 -0.5430  1.3021  0.5687
 5582TIP3   OH217174   3.900   2.133   4.809 -1.0691  0.3367 -0.5202
 5582TIP3    H117175   3.932   2.180   4.733  1.6977 -1.6399 -0.6455
 5582TIP3    H217176   3.967   2.146   4.876 -2.7470  0.8071  1.1365
 5583TIP3   OH217177   4.101   2.506   5.410  0.1142 -0.1289  0.4499
 5583TIP3    H117178   4.176   2.447   5.419  0.6020  0.2775 -0.8440
 5583TIP3    H217179   4.107   2.564   5.487  1.2817  0.0590  0.2303
 5584TIP3   OH217180   4.359   5.021   0.628  0.2022 -0.4228  0.5898
 5584TIP3    H117181   4.350   5.093   0.691 -0.0747 -0.1342  0.2167
 5584TIP3    H217182   4.398   5.061   0.551 -0.8525 -0.4727  0.0245
 5585TIP3   OH217183   2.137   2.326   4.803  0.6556  0.2166 -1.2821
 5585TIP3    H117184   2.204   2.275   4.849  0.0812 -0.0846 -0.7749
 5585TIP3    H217185   2.066   2.337   4.867  0.9011  1.9311 -1.2677
 5586TIP3   OH217186   5.820   3.995   2.706 -0.1437 -0.4618  0.9585
 5586TIP3    H117187   5.871   4.063   2.662 -1.4542  0.0948  0.2779
 5586TIP3    H217188   5.774   3.950   2.636  0.1724 -1.6180  1.4753
 5587TIP3   OH217189   2.685   2.720   5.193  0.4991 -0.1520  0.4763
 5587TIP3    H117190   2.674   2.770   5.274  0.4449  0.4320  0.1149
 5587TIP3    H217191   2.755   2.766   5.146 -0.0881  0.0568 -0.2105
 5588TIP3   OH217192   2.892   1.041   5.672 -0.2733  0.0283  0.1916
 5588TIP3    H117193   2.852   1.077   5.751 -1.0089 -0.0808 -0.1248
 5588TIP3    H217194   2.921   0.953   5.698  1.0012  0.6179  0.8015
 5589TIP3   OH217195   4.921   3.642   0.377 -0.2052  0.0815 -0.6866
 5589TIP3    H117196   4.844   3.663   0.324 -1.0422 -0.4833  0.2973
 5589TIP3    H217197   4.925   3.710   0.443 -1.4240 -1.3649  0.9111
 5590TIP3   OH217198   5.044   3.367   0.338 -0.2037 -0.6931 -0.3875
 5590TIP3    H117199   5.017   3.455   0.365 -1.0547 -1.4064  1.1399
 5590TIP3    H217200   5.028   3.365   0.244  0.3420  0.9687 -0.5439
 5591TIP3   OH217201   5.598   0.750   3.275  0.3851  1.0458 -0.1060
 5591TIP3    H117202   5.559   0.717   3.194  0.5753  1.4699 -0.3735
 5591TIP3    H217203   5.589   0.845   3.269  1.4700  1.1587 -0.1827
 5592TIP3   OH217204   3.657   2.215   4.422  0.3274 -0.1835 -0.4835
 5592TIP3    H117205   3.667   2.310   4.434  1.3056 -0.2067 -1.0181
 5592TIP3    H217206   3.607   2.207   4.340  0.0912 -0.1212 -0.3436
 5593TIP3   OH217207   2.055   5.987   0.932  0.3687  0.1390 -0.4234
 5593TIP3    H117208   2.005   6.028   0.861 -0.3029 -0.4966 -0.3237
 5593TIP3    H217209   1.989   5.963   0.997  1.1499  2.2905  1.2370
 5594TIP3   OH217210   4.454   3.877   0.604 -0.1477  0.6748 -0.5154
 5594TIP3    H117211   4.478   3.964   0.635 -0.3354  1.1318 -1.6554
 5594TIP3    H217212   4.531   3.823   0.624  0.4121  1.3437 -0.8493
 5595TIP3   OH217213   5.321   3.626   3.059 -0.3357 -0.0487 -0.0696
 5595TIP3    H117214   5.397   3.586   3.017 -0.1500  0.5754 -0.3362
 5595TIP3    H217215   5.309   3.710   3.013  0.8508  1.3871  2.1629
 5596TIP3   OH217216   4.107   4.694   0.284  0.2629 -0.3133 -1.0266
 5596TIP3    H117217   4.081   4.693   0.191  0.0666 -0.3772 -0.9701
 5596TIP3    H217218   4.138   4.783   0.298 -1.6057  0.2989 -0.6288
 5597TIP3   OH217219   3.014   0.216   5.600 -0.2707 -0.3614 -0.1655
 5597TIP3    H117220   3.020   0.162   5.521 -0.4479 -0.3727 -0.1712
 5597TIP3    H217221   3.055   0.299   5.575 -2.2353  0.4145 -0.9562
 5598TIP3   OH217222   4.990   0.589   5.461  0.0499  0.0429 -0.3541
 5598TIP3    H117223   4.922   0.580   5.528  0.1491 -2.3062 -0.5272
 5598TIP3    H217224   5.020   0.499   5.445  0.3971  0.6167 -3.1592
 5599TIP3   OH217225   3.892   5.599   4.395  0.3879 -0.1986 -0.5644
 5599TIP3    H117226   3.984   5.620   4.409  0.1563 -0.1525  0.9887
 5599TIP3    H217227   3.889   5.503   4.396  0.1133 -0.2069  1.7481
 5600TIP3   OH217228   3.650   3.710   5.716  0.2283 -0.4452  0.1428
 5600TIP3    H117229   3.717   3.778   5.720 -0.3678  0.0983  0.9869
 5600TIP3    H217230   3.646   3.675   5.805 -0.0068 -1.0608 -0.1075
 5601TIP3   OH217231   1.726   2.766   5.490 -0.1452 -0.1754 -0.0730
 5601TIP3    H117232   1.807   2.746   5.443 -0.0761 -0.4188  0.1448
 5601TIP3    H217233   1.702   2.683   5.532 -0.9980 -0.3317 -0.8683
 5602TIP3   OH217234   0.807   1.187   4.246 -0.2952  0.2356 -0.4246
 5602TIP3    H117235   0.891   1.186   4.200  0.9796  3.1811  1.7165
 5602TIP3    H217236   0.742   1.200   4.176  1.4695  2.9866 -1.6271
 5603TIP3   OH217237   5.057   4.180   4.696  0.0831 -0.0065 -0.4296
 5603TIP3    H117238   5.136   4.148   4.651  0.8360 -1.2679  1.7287
 5603TIP3    H217239   4.995   4.107   4.691  0.0191  0.0018  0.2003
 5604TIP3   OH217240   3.935   1.975   3.795 -0.3879  0.5377  0.0534
 5604TIP3    H117241   3.846   1.944   3.782  0.7461 -1.4289 -3.6745
 5604TIP3    H217242   3.982   1.901   3.835  0.4600  0.1734 -1.5756
 5605TIP3   OH217243   1.657   0.538   4.791  0.1334  0.1055 -0.3080
 5605TIP3    H117244   1.628   0.629   4.805  1.7534  0.6357 -0.2798
 5605TIP3    H217245   1.689   0.538   4.701 -2.2994 -1.1324 -1.2264
 5606TIP3   OH217246   0.890   5.447   5.789 -0.4345  0.5865  0.0570
 5606TIP3    H117247   0.975   5.418   5.754  0.3695  1.7604  1.0021
 5606TIP3    H217248   0.843   5.366   5.806  0.6873 -0.1005 -0.0298
 5607TIP3   OH217249   4.384   1.880   0.193 -0.0752 -0.3007  0.8496
 5607TIP3    H117250   4.371   1.934   0.115  2.3527 -1.7835 -0.6208
 5607TIP3    H217251   4.406   1.793   0.159 -1.9963 -1.7726  3.1930
 5608TIP3   OH217252   4.015   1.950   5.527  0.0929  0.1523 -0.2543
 5608TIP3    H117253   4.054   1.929   5.612 -2.0013  1.9574  1.2006
 5608TIP3    H217254   4.083   2.001   5.482  0.6009  0.6117  1.0116
 5609TIP3   OH217255   0.343   1.751   2.130 -0.3088  0.1736 -0.1530
 5609TIP3    H117256   0.282   1.823   2.116 -0.5390  0.0694  0.2961
 5609TIP3    H217257   0.310   1.706   2.208  0.6631  0.4427  0.4159
 5610TIP3   OH217258   3.081   0.784   4.670 -0.1219  0.1037 -0.4546
 5610TIP3    H117259   3.046   0.811   4.755  0.1267  1.2231 -0.7063
 5610TIP3    H217260   3.084   0.688   4.676  0.6322  0.1965  1.0966
 5611TIP3   OH217261   4.022   1.517   4.796 -0.6932 -0.4360 -0.4548
 5611TIP3    H117262   3.977   1.481   4.873  0.7634 -3.6569 -1.0230
 5611TIP3    H217263   4.073   1.591   4.830 -2.4393  0.0999  1.0820
 5612TIP3   OH217264   4.430   1.913   3.644 -0.0181  0.4625 -0.6552
 5612TIP3    H117265   4.510   1.890   3.597  0.3837  0.7110 -0.0947
 5612TIP3    H217266   4.366   1.847   3.616  1.4626 -2.2279  1.9431
 5613TIP3   OH217267   0.664   1.950   4.317  0.4187 -0.0833  0.1769
 5613TIP3    H117268   0.588   1.901   4.286  0.7632 -0.3312 -0.2869
 5613TIP3    H217269   0.650   1.961   4.411  0.7359 -1.7499  0.4213
 5614TIP3   OH217270   4.812   1.408   4.085  0.0147 -0.3607 -0.2810
 5614TIP3    H117271   4.872   1.397   4.011 -0.0305 -0.3150 -0.3248
 5614TIP3    H217272   4.772   1.322   4.096  1.4655 -0.8973  0.9546
 5615TIP3   OH217273   4.380   3.909   3.447 -0.0532 -0.1313 -0.4722
 5615TIP3    H117274   4.359   3.906   3.354  0.1494  0.4526 -0.5436
 5615TIP3    H217275   4.300   3.882   3.491 -0.5407  0.7885 -0.7753
 5616TIP3   OH217276   4.947   1.648   4.882  0.2363 -0.3828  0.1346
 5616TIP3    H117277   4.886   1.699   4.934  0.8682 -0.1801  0.6853
 5616TIP3    H217278   4.912   1.559   4.882 -1.4246  0.2348 -1.6802
 5617TIP3   OH217279   4.417   2.339   4.286  0.1162  0.8558 -0.2083
 5617TIP3    H117280   4.353   2.307   4.222 -0.2068 -0.1743  0.6161
 5617TIP3    H217281   4.407   2.280   4.361  2.4287  0.3291 -0.2878
 5618TIP3   OH217282   5.019   4.087   4.410  0.0088  0.3679 -0.4469
 5618TIP3    H117283   5.004   4.034   4.489  1.2005 -0.3680 -0.6914
 5618TIP3    H217284   4.934   4.092   4.368 -0.5647  0.4733  0.7230
 5619TIP3   OH217285   0.036   2.864   5.066  0.6193  0.0050 -0.0298
 5619TIP3    H117286   0.098   2.828   5.129  0.7940  2.6437  1.3732
 5619TIP3    H217287  -0.037   2.802   5.066  1.2338 -0.7458  1.7553
 5620TIP3   OH217288   0.559   5.913   0.119 -0.0712  0.4985 -0.5282
 5620TIP3    H117289   0.521   5.863   0.191  0.0671 -0.3477 -1.0356
 5620TIP3    H217290   0.518   5.876   0.041  0.8903  0.4151 -0.9899
 5621TIP3   OH217291   3.861   1.348   3.845  0.1057 -0.4200  0.8665
 5621TIP3    H117292   3.821   1.261   3.847  0.0046 -0.3547  1.5561
 5621TIP3    H217293   3.937   1.342   3.903  1.6352 -0.7965 -1.1244
 5622TIP3   OH217294   2.670   0.774   5.766  0.0008  0.1439  0.0235
 5622TIP3    H117295   2.673   0.781   5.862 -2.1069  1.9714 -0.0166
 5622TIP3    H217296   2.614   0.697   5.750 -1.4687  1.1380  0.2715
 5623TIP3   OH217297   0.098   5.845   0.872  0.3718 -0.1315  0.2962
 5623TIP3    H117298   0.071   5.780   0.938 -0.7237 -0.6252 -0.6169
 5623TIP3    H217299   0.020   5.857   0.818  0.5863  1.8889  0.3934
 5624TIP3   OH217300   0.253   2.469   2.183  0.1179  0.0132 -0.4873
 5624TIP3    H117301   0.270   2.548   2.234  1.5907  0.2772 -1.3613
 5624TIP3    H217302   0.284   2.397   2.237  0.6154  0.1986 -0.5274
 5625TIP3   OH217303   5.838   3.395   5.439  0.5904  0.1765  0.4983
 5625TIP3    H117304   5.817   3.431   5.353  2.0785  0.1867  0.1362
 5625TIP3    H217305   5.759   3.347   5.465 -0.1286  0.7842 -0.5441
 5626TIP3   OH217306   1.382   1.154   3.138  0.2569  0.1452  0.5844
 5626TIP3    H117307   1.387   1.164   3.043  1.2179 -1.4353  0.4396
 5626TIP3    H217308   1.428   1.231   3.173 -0.7926  1.1427 -0.1943
 5627TIP3   OH217309   5.821   2.216   1.339  0.4803 -0.0181  0.0751
 5627TIP3    H117310   5.858   2.233   1.426  0.3728  0.5246  0.0198
 5627TIP3    H217311   5.737   2.173   1.357  2.2801 -3.6917  0.1547
 5628TIP3   OH217312   0.252   3.233   3.603  0.2893 -0.1058  0.2548
 5628TIP3    H117313   0.225   3.240   3.694  1.4542  0.3287  0.5808
 5628TIP3    H217314   0.323   3.296   3.594 -2.4130  2.7670 -2.0012
 5629TIP3   OH217315   2.773   1.619   3.996  0.2749 -0.5357 -0.0493
 5629TIP3    H117316   2.832   1.636   4.070  0.2161  2.5661 -0.6301
 5629TIP3    H217317   2.686   1.634   4.032  0.0975 -1.2822 -0.1728
 5630TIP3   OH217318   5.797   0.158   4.031  0.0328 -0.2824  0.3861
 5630TIP3    H117319   5.708   0.128   4.012  0.5968 -0.9477 -1.3465
 5630TIP3    H217320   5.838   0.086   4.079  0.4346 -1.0797 -1.1126
 5631TIP3   OH217321   5.433   4.515   4.618 -0.0370 -0.2090 -0.2989
 5631TIP3    H117322   5.370   4.493   4.687 -1.1158 -0.3033 -1.3068
 5631TIP3    H217323   5.437   4.436   4.563 -0.3216  0.4018 -1.2015
 5632TIP3   OH217324   1.045   1.525   4.889 -0.1198  0.2866 -0.5507
 5632TIP3    H117325   1.038   1.544   4.795  1.8917  0.1099 -0.7712
 5632TIP3    H217326   1.091   1.601   4.925  0.1810 -0.1907  0.0745
 5633TIP3   OH217327   4.840   2.804   5.923  0.1132 -0.0319  0.0494
 5633TIP3    H117328   4.799   2.803   6.010  2.1386 -1.4870  1.0416
 5633TIP3    H217329   4.827   2.715   5.890 -1.4494  0.7648 -1.5806
 5634TIP3   OH217330   5.814   2.694   3.509 -0.2155  0.0194  0.2109
 5634TIP3    H117331   5.794   2.642   3.587 -1.1248  0.4350  0.2520
 5634TIP3    H217332   5.729   2.721   3.475  0.1284 -0.9623 -1.4852
 5635TIP3   OH217333   5.930   2.647   6.063 -0.0400 -0.6004  0.7150
 5635TIP3    H117334   5.849   2.698   6.070 -0.1077 -0.3263 -1.6081
 5635TIP3    H217335   5.901   2.558   6.040  0.2301 -0.9374  1.6732
 5636TIP3   OH217336   5.475   5.216   5.060  0.0347  0.4353  0.0448
 5636TIP3    H117337   5.416   5.291   5.062 -1.1366 -0.4691 -0.0040
 5636TIP3    H217338   5.547   5.243   5.002  0.6534  2.2461  1.5937
 5637TIP3   OH217339   5.940   3.038   5.443 -0.1226 -0.2404 -0.4860
 5637TIP3    H117340   5.997   2.973   5.402  0.3983  0.1222 -0.3293
 5637TIP3    H217341   5.987   3.120   5.437 -0.4991  0.0092 -0.0927
 5638TIP3   OH217342   5.335   0.327   4.625 -0.6584 -0.3026  0.0129
 5638TIP3    H117343   5.397   0.391   4.592  0.4769 -1.4141 -0.0400
 5638TIP3    H217344   5.256   0.378   4.644  0.1778  1.0786 -0.1367
 5639TIP3   OH217345   4.959   2.740   5.230  0.5753  0.1506 -0.5496
 5639TIP3    H117346   5.051   2.723   5.252  0.7630  2.5636  0.7377
 5639TIP3    H217347   4.950   2.714   5.139  2.6967  0.4659 -0.8622
 5640TIP3   OH217348   5.183   1.304   5.273 -0.4089 -0.4338  0.1067
 5640TIP3    H117349   5.165   1.382   5.220 -0.7790 -1.0663 -0.7121
 5640TIP3    H217350   5.126   1.236   5.236 -1.4637 -0.6132  2.0063
 5641TIP3   OH217351   4.136   0.884   5.319 -0.2363  0.4015  0.4847
 5641TIP3    H117352   4.210   0.856   5.374 -0.4639  0.7507  0.9704
 5641TIP3    H217353   4.071   0.916   5.381 -0.4902  0.8168  0.0078
 5642TIP3   OH217354   1.966   4.051   4.930 -0.0112  0.1173  0.2303
 5642TIP3    H117355   2.053   4.082   4.955 -0.4311  0.9642  0.6411
 5642TIP3    H217356   1.913   4.061   5.009 -0.9733  1.4152 -0.5690
 5643TIP3   OH217357   5.404   3.514   3.485  0.2271 -0.4836  0.0171
 5643TIP3    H117358   5.466   3.560   3.541 -0.5207 -0.7995  1.1000
 5643TIP3    H217359   5.459   3.458   3.429  0.8897 -1.0185  1.1975
 5644TIP3   OH217360   0.246   3.023   4.976  0.4935  0.3171  0.3291
 5644TIP3    H117361   0.279   2.948   4.926 -2.1603  1.9571 -4.1735
 5644TIP3    H217362   0.165   2.992   5.016 -0.3029  0.6069 -1.0528
 5645TIP3   OH217363   5.739   1.286   5.360 -0.5743 -0.6338 -0.2365
 5645TIP3    H117364   5.693   1.370   5.355 -0.0298 -0.2834  0.4721
 5645TIP3    H217365   5.773   1.272   5.272 -2.1515 -0.9771 -0.8169
 5646TIP3   OH217366   0.186   3.991   5.056  0.2557 -0.4159 -0.7229
 5646TIP3    H117367   0.114   3.929   5.064  0.1168 -0.3084 -1.1528
 5646TIP3    H217368   0.168   4.039   4.975 -1.1420  2.1313  1.0231
 5647TIP3   OH217369   0.021   1.507   4.949 -0.1537  0.7473  0.3086
 5647TIP3    H117370  -0.037   1.583   4.951 -0.7338  0.2792  1.5240
 5647TIP3    H217371  -0.038   1.432   4.958  0.4902  0.1899 -0.1190
 5648TIP3   OH217372   4.944   2.312   0.029 -0.1939 -0.2507 -0.7449
 5648TIP3    H117373   4.988   2.388   0.066 -1.3411 -1.2169  2.7627
 5648TIP3    H217374   4.995   2.291  -0.049  2.2403  1.9551  0.1771
 5649TIP3   OH217375   1.866   1.698   1.114  0.3179  0.1624 -0.6156
 5649TIP3    H117376   1.818   1.724   1.192 -0.4838 -2.1075 -0.3157
 5649TIP3    H217377   1.804   1.643   1.065  1.5878 -0.3361 -1.7004
 5650TIP3   OH217378   4.918   2.517   5.468 -0.3701 -0.0411  0.2537
 5650TIP3    H117379   4.927   2.422   5.461 -2.0458 -0.2754  0.9860
 5650TIP3    H217380   4.983   2.552   5.408  0.2739 -1.6550 -0.0089
 5651TIP3   OH217381   0.052   0.365   2.800  0.1437 -0.3818 -0.6622
 5651TIP3    H117382   0.135   0.348   2.845 -1.1837 -2.2453  1.1388
 5651TIP3    H217383   0.048   0.461   2.793  3.1764 -0.3008 -2.2634
 5652TIP3   OH217384   3.880   3.239   1.851 -0.5429  0.3729 -0.0341
 5652TIP3    H117385   3.973   3.260   1.850  0.2256 -2.8108  1.3191
 5652TIP3    H217386   3.857   3.227   1.759  0.2604  1.4793 -0.3995
 5653TIP3   OH217387   3.663   3.060   5.716  0.2954 -0.9418  0.7203
 5653TIP3    H117388   3.577   3.024   5.696  0.1464  0.2617 -0.9594
 5653TIP3    H217389   3.647   3.153   5.731  1.5847 -0.2294 -1.9637
 5654TIP3   OH217390   5.693   2.314   0.395  0.8547  0.7241  0.5333
 5654TIP3    H117391   5.743   2.233   0.400  1.2604  0.5186 -4.5121
 5654TIP3    H217392   5.622   2.302   0.458  2.1866 -2.5757  1.5064
 5655TIP3   OH217393   4.339   4.284   4.330 -0.4145 -0.4776 -0.0645
 5655TIP3    H117394   4.413   4.272   4.271 -2.1191 -3.0801 -1.7588
 5655TIP3    H217395   4.293   4.361   4.297 -0.8711 -1.4165 -1.6747
 5656TIP3   OH217396   5.837   4.075   2.969 -0.5347 -0.2689 -0.0424
 5656TIP3    H117397   5.761   4.127   2.993  0.3872  0.1058  2.1567
 5656TIP3    H217398   5.842   4.081   2.873 -1.3472  2.3749  0.0582
 5657TIP3   OH217399   0.432   1.703   4.560  0.0724  0.1020 -0.2701
 5657TIP3    H117400   0.428   1.756   4.640  0.7648 -2.8053  1.7804
 5657TIP3    H217401   0.350   1.654   4.559 -0.4609  0.9988 -2.0048
 5658TIP3   OH217402   0.898   3.859   0.480  0.8191  0.3837 -0.3616
 5658TIP3    H117403   0.812   3.868   0.439  0.5252 -0.2435  0.1087
 5658TIP3    H217404   0.955   3.827   0.410  0.2818 -0.8506 -0.2492
 5659TIP3   OH217405   1.408   1.555   3.942  0.3606 -0.2321 -0.2100
 5659TIP3    H117406   1.435   1.511   3.861 -1.2469 -2.2159  0.2921
 5659TIP3    H217407   1.361   1.633   3.912 -1.5748 -1.7556 -1.2702
 5660TIP3   OH217408   5.119   0.774   5.035  0.1400  0.0966 -0.4028
 5660TIP3    H117409   5.166   0.695   5.062 -0.1971 -0.2899 -0.9399
 5660TIP3    H217410   5.051   0.786   5.102  0.1178 -0.1372 -0.3833
 5661TIP3   OH217411   1.622   6.004   1.530 -0.0411 -0.6275  0.2022
 5661TIP3    H117412   1.703   6.044   1.562  1.0103 -0.8715 -2.0299
 5661TIP3    H217413   1.562   6.078   1.519  0.7922 -0.0557 -0.6999
 5662TIP3   OH217414   4.904   2.128   4.936  0.8338 -0.3517  0.5122
 5662TIP3    H117415   4.859   2.171   4.863 -0.5532 -1.2408  0.8307
 5662TIP3    H217416   4.884   2.183   5.012 -0.5989 -1.2999  0.8436
 5663TIP3   OH217417   5.019   3.738   5.229 -0.1896  0.5360  0.7152
 5663TIP3    H117418   4.994   3.733   5.321  0.9673 -0.6247  0.9795
 5663TIP3    H217419   5.105   3.698   5.225  0.3245  1.7321 -0.6773
 5664TIP3   OH217420   5.857   1.463   4.013 -0.0493 -0.5296  0.1412
 5664TIP3    H117421   5.937   1.489   3.967 -1.1150  1.2207 -0.7518
 5664TIP3    H217422   5.881   1.466   4.106  0.4729  1.5684 -0.0420
 5665TIP3   OH217423   4.466   2.853   3.022 -0.7738  0.1247  0.0509
 5665TIP3    H117424   4.560   2.840   3.012 -0.4722  2.4578 -0.3977
 5665TIP3    H217425   4.456   2.887   3.111 -1.0054  1.4163 -0.4577
 5666TIP3   OH217426   4.200   1.345   2.886 -0.1737 -0.2334  0.2609
 5666TIP3    H117427   4.244   1.287   2.947 -0.4726 -0.4244  0.2977
 5666TIP3    H217428   4.258   1.349   2.810 -0.1226 -0.5318  0.2841
 5667TIP3   OH217429   0.004   5.698   5.077 -0.3308  0.3598  0.2940
 5667TIP3    H117430   0.072   5.679   5.013  0.8925  0.6614  1.4867
 5667TIP3    H217431   0.049   5.746   5.147 -1.7464  0.4963  1.1332
 5668TIP3   OH217432   2.135   0.807   3.127  0.0176  0.2171  0.6037
 5668TIP3    H117433   2.150   0.783   3.035 -1.0514 -2.5248  1.0892
 5668TIP3    H217434   2.068   0.876   3.123  2.0801  2.1819 -0.7898
 5669TIP3   OH217435   5.298   3.788   3.422  0.2751 -0.4802 -0.0715
 5669TIP3    H117436   5.363   3.840   3.376 -0.5891  1.0456  0.4136
 5669TIP3    H217437   5.342   3.705   3.440  0.8818 -0.8500 -2.9855
 5670TIP3   OH217438   4.156   1.546   4.034 -0.0468  0.4179  0.2365
 5670TIP3    H117439   4.205   1.572   4.112 -2.3335  2.8735  0.9235
 5670TIP3    H217440   4.130   1.456   4.051  2.9419 -0.4588  0.4648
 5671TIP3   OH217441   0.117   2.344   1.964 -0.1627  0.4081 -0.0167
 5671TIP3    H117442   0.162   2.411   2.015 -0.7233  0.9117 -0.1763
 5671TIP3    H217443   0.028   2.378   1.953 -0.9021 -1.0605  1.1981
 5672TIP3   OH217444   3.596   5.382   3.400  0.4438  0.0663 -0.5086
 5672TIP3    H117445   3.691   5.377   3.389  0.3951  1.0585 -1.4087
 5672TIP3    H217446   3.584   5.402   3.493  1.0434 -1.7794 -0.0053
 5673TIP3   OH217447   5.112   2.685   1.795 -0.1690  0.5443  0.3364
 5673TIP3    H117448   5.135   2.755   1.734  0.2609 -0.5485 -0.7952
 5673TIP3    H217449   5.017   2.689   1.803 -0.1661  1.0944  0.0882
 5674TIP3   OH217450   5.278   3.390   4.881  0.2747 -0.5115 -0.3187
 5674TIP3    H117451   5.328   3.319   4.922 -0.0751  0.7503  2.4301
 5674TIP3    H217452   5.189   3.378   4.914  0.6724  2.4750  2.0085
 5675TIP3   OH217453   0.134   4.069   1.825  0.7217  0.3052  0.0044
 5675TIP3    H117454   0.222   4.043   1.852  0.1381 -0.3614  1.2799
 5675TIP3    H217455   0.076   4.031   1.890 -0.6946 -0.9660 -1.9238
 5676TIP3   OH217456   5.558   4.797   0.317  0.5402  0.1055 -0.9892
 5676TIP3    H117457   5.571   4.874   0.262  1.5897  0.1951 -0.6341
 5676TIP3    H217458   5.625   4.735   0.289 -0.3451 -0.7139 -1.3192
 5677TIP3   OH217459   1.976   2.632   0.335  0.7854 -0.0208 -0.0590
 5677TIP3    H117460   1.987   2.581   0.255 -0.4196  1.3194 -1.1053
 5677TIP3    H217461   2.030   2.710   0.321  0.4856  0.2690  0.3821
 5678TIP3   OH217462   1.862   5.015   3.487 -0.0306  0.0334 -0.2735
 5678TIP3    H117463   1.915   4.937   3.476 -1.0712 -0.6570 -0.5092
 5678TIP3    H217464   1.772   4.982   3.496 -0.5017  1.2033 -0.5278
 5679TIP3   OH217465   5.409   2.770   3.033  0.3128  0.3488 -0.1584
 5679TIP3    H117466   5.430   2.706   3.101 -0.8351  0.6339  0.4779
 5679TIP3    H217467   5.482   2.764   2.971  0.5893 -1.0229  0.2856
 5680TIP3   OH217468   0.767   4.852   5.142  0.3772  0.3445 -0.0327
 5680TIP3    H117469   0.850   4.867   5.187 -0.2230 -0.4359  1.3881
 5680TIP3    H217470   0.743   4.762   5.167  0.5758 -0.5345 -2.8238
 5681TIP3   OH217471   1.268   4.452   4.726 -0.6805 -0.1137  0.2244
 5681TIP3    H117472   1.355   4.432   4.692 -0.7102  0.1640 -0.0175
 5681TIP3    H217473   1.238   4.526   4.673 -1.1719 -0.3796  0.1246
 5682TIP3   OH217474   0.634   3.153   3.405 -0.1498 -0.1554  0.4620
 5682TIP3    H117475   0.664   3.240   3.431 -4.2310  1.9799 -1.5823
 5682TIP3    H217476   0.564   3.132   3.466 -1.1051 -0.7620 -0.8208
 5683TIP3   OH217477   0.190   3.586   3.669 -0.0268 -0.1858  0.1981
 5683TIP3    H117478   0.238   3.653   3.717 -0.2444 -0.2472  0.5027
 5683TIP3    H217479   0.255   3.546   3.612 -0.4011  1.9170 -1.7817
 5684TIP3   OH217480   0.576   5.435   3.000 -0.1229  0.5983 -0.3372
 5684TIP3    H117481   0.642   5.461   3.064 -0.9894  1.8023  0.0666
 5684TIP3    H217482   0.626   5.419   2.920  0.9023 -0.4056  0.4673
 5685TIP3   OH217483   0.792   4.617   5.261  0.0010 -0.6057  0.1829
 5685TIP3    H117484   0.748   4.545   5.306 -1.0973  0.2818  0.5581
 5685TIP3    H217485   0.837   4.576   5.187 -0.5028 -1.6834  0.4685
 5686TIP3   OH217486   0.302   3.865   5.559  0.1197 -0.0769 -0.3589
 5686TIP3    H117487   0.337   3.780   5.533 -0.4266 -0.9885  1.7773
 5686TIP3    H217488   0.353   3.890   5.637 -0.7294  0.8405 -0.0806
 5687TIP3   OH217489   1.833   4.124   4.505  0.0863  0.1439 -0.0476
 5687TIP3    H117490   1.756   4.176   4.483 -1.2696 -1.0358  1.7715
 5687TIP3    H217491   1.872   4.170   4.579 -0.6840 -0.9721  1.0721
 5688TIP3   OH217492   5.314   4.878   3.028 -0.7203 -0.1150  0.2302
 5688TIP3    H117493   5.371   4.887   3.104 -0.7971  0.3784  0.2304
 5688TIP3    H217494   5.349   4.942   2.965  1.5064 -2.8764 -1.4842
 5689TIP3   OH217495   2.636   4.745   0.393  0.1633  0.0011  0.1836
 5689TIP3    H117496   2.657   4.680   0.460  0.7123 -0.1157 -0.1027
 5689TIP3    H217497   2.567   4.704   0.341  1.1852 -0.7498 -0.5907
 5690TIP3   OH217498   5.696   4.487   4.747  1.0193 -0.3032  0.1429
 5690TIP3    H117499   5.615   4.527   4.717  1.7488  0.4161 -0.9277
 5690TIP3    H217500   5.763   4.553   4.729  1.8089 -0.8025  1.2031
 5691TIP3   OH217501   4.674   3.712   2.094 -0.1988 -0.5818 -0.3560
 5691TIP3    H117502   4.593   3.678   2.131 -0.6419  1.8783  1.0079
 5691TIP3    H217503   4.652   3.801   2.064  1.8276 -0.1092 -0.5416
 5692TIP3   OH217504   3.591   4.345   0.069 -0.1326  0.1852  0.3402
 5692TIP3    H117505   3.593   4.415   0.134 -0.1680 -0.6520  1.2406
 5692TIP3    H217506   3.529   4.377   0.002 -1.2541  0.3884  1.4534
 5693TIP3   OH217507   2.433   5.120   1.251  0.2062  0.4875 -0.3870
 5693TIP3    H117508   2.356   5.161   1.211  0.0686 -0.6612 -1.3294
 5693TIP3    H217509   2.466   5.186   1.312 -0.3948  1.7388 -1.3809
 5694TIP3   OH217510   1.182   1.928   4.757 -0.0914 -0.2204  0.2218
 5694TIP3    H117511   1.276   1.947   4.748 -0.3061  0.7230 -0.0561
 5694TIP3    H217512   1.174   1.892   4.846  0.3949  0.5995  0.6033
 5695TIP3   OH217513   0.296   2.566   5.702 -0.1864 -1.0335  0.5925
 5695TIP3    H117514   0.268   2.657   5.713  0.6378 -0.8153  0.9229
 5695TIP3    H217515   0.386   2.565   5.733  0.1477 -1.7482 -0.3845
 5696TIP3   OH217516   5.292   4.072   4.592  0.1361  0.2058  0.1794
 5696TIP3    H117517   5.323   3.982   4.600  0.3461  0.2071 -0.5704
 5696TIP3    H217518   5.371   4.126   4.603  0.3031  0.2322 -1.0780
 5697TIP3   OH217519   2.591   0.269   3.496 -0.6332 -0.1412 -0.0640
 5697TIP3    H117520   2.529   0.320   3.548  0.0081  0.0941  0.4799
 5697TIP3    H217521   2.536   0.212   3.442 -1.3094 -0.1586  0.6368
 5698TIP3   OH217522   1.046   5.061   5.649  0.7120 -0.1206  0.0453
 5698TIP3    H117523   1.020   5.104   5.567 -3.1970 -0.0128  1.2201
 5698TIP3    H217524   0.988   4.985   5.655  2.8775 -1.7284  1.3801
 5699TIP3   OH217525   0.355   4.313   6.016 -0.5280 -0.5214 -0.4956
 5699TIP3    H117526   0.299   4.236   6.005  0.4205 -1.0962 -1.4442
 5699TIP3    H217527   0.312   4.382   5.965 -0.8290 -0.7221 -0.5130
 5700TIP3   OH217528   6.015   5.181   5.468 -0.5748 -0.1476  0.5459
 5700TIP3    H117529   5.974   5.239   5.532 -1.0399 -0.6577  0.7086
 5700TIP3    H217530   5.999   5.093   5.501 -2.1229 -0.4870 -1.0349
 5701TIP3   OH217531   2.285   5.409   5.256 -0.7204 -0.2805  0.2337
 5701TIP3    H117532   2.271   5.495   5.297  0.6253 -0.4647  1.0759
 5701TIP3    H217533   2.289   5.429   5.162 -3.0439  0.2295  0.1939
 5702TIP3   OH217534   2.438   4.172   4.928 -0.6377 -0.0066 -0.2321
 5702TIP3    H117535   2.447   4.233   5.001 -0.1955 -0.2956 -0.0403
 5702TIP3    H217536   2.512   4.193   4.870  0.5715 -1.5387  0.7083
 5703TIP3   OH217537   1.075   5.411   3.106 -0.0056 -0.0730  0.5908
 5703TIP3    H117538   1.167   5.388   3.115  0.3739  0.6433 -1.3629
 5703TIP3    H217539   1.040   5.348   3.043 -0.7780 -0.1208  1.0515
 5704TIP3   OH217540   1.420   4.951   1.557 -0.3348 -0.0738 -0.1218
 5704TIP3    H117541   1.369   4.879   1.522 -0.0500 -1.0885  1.5004
 5704TIP3    H217542   1.467   4.914   1.631  0.6286  1.5204  0.1050
 5705TIP3   OH217543   1.334   4.137   6.070  0.2286  0.1859 -0.4606
 5705TIP3    H117544   1.397   4.082   6.024  0.2428 -0.0586 -0.1533
 5705TIP3    H217545   1.333   4.220   6.021  1.1010  0.3432 -0.2196
 5706TIP3   OH217546   0.747   4.824   3.677  0.1003  0.2822 -0.3541
 5706TIP3    H117547   0.757   4.850   3.586  0.5349  1.1850 -0.0545
 5706TIP3    H217548   0.793   4.740   3.684  1.3140  0.9080 -0.6427
 5707TIP3   OH217549   0.049   1.703   0.064  0.4106  0.5696 -0.3171
 5707TIP3    H117550   0.098   1.692   0.146 -0.2957 -0.0819  0.0206
 5707TIP3    H217551   0.072   1.791   0.034  1.6507  0.3404 -0.0727
 5708TIP3   OH217552   1.489   4.063   0.448 -0.3556 -0.0543  0.5534
 5708TIP3    H117553   1.570   4.024   0.482 -0.8862 -1.5136  0.1662
 5708TIP3    H217554   1.444   3.991   0.404  0.1177  1.6775 -2.9367
 5709TIP3   OH217555   6.036   4.193   5.580 -0.0939  0.1751 -0.5984
 5709TIP3    H117556   5.961   4.250   5.564 -0.3903 -0.3982 -1.2772
 5709TIP3    H217557   6.077   4.181   5.494  0.5324  0.1454 -0.3034
 5710TIP3   OH217558   5.858   5.959   3.710 -0.0273 -0.1750  0.4725
 5710TIP3    H117559   5.930   5.910   3.750 -0.0252  0.2735  1.0252
 5710TIP3    H217560   5.870   6.049   3.740  0.9001  0.5018 -1.8458
 5711TIP3   OH217561   2.990   3.320   0.017 -0.7526  0.4735  0.3289
 5711TIP3    H117562   2.917   3.260   0.001  0.6085 -1.3543  0.8344
 5711TIP3    H217563   3.004   3.363  -0.068 -0.2509 -1.6104 -0.6627
 5712TIP3   OH217564   1.250   4.594   2.038  0.2487  0.0416 -0.2041
 5712TIP3    H117565   1.184   4.612   1.972  0.0593  0.2343  0.0363
 5712TIP3    H217566   1.201   4.591   2.120  0.5642  0.3458 -0.0041
 5713TIP3   OH217567   2.210   3.685   3.814 -0.0417 -0.1303  0.4857
 5713TIP3    H117568   2.268   3.761   3.814 -1.1194  0.6986 -0.1765
 5713TIP3    H217569   2.177   3.680   3.724 -1.7898  0.0215  1.0971
 5714TIP3   OH217570   0.230   5.331   3.648 -0.3519 -0.1535  0.5830
 5714TIP3    H117571   0.268   5.243   3.647 -0.8530 -0.3722 -0.4787
 5714TIP3    H217572   0.163   5.327   3.717  0.0286 -0.4277  0.9371
 5715TIP3   OH217573   0.315   6.038   3.997 -0.5667 -0.1355  0.1396
 5715TIP3    H117574   0.220   6.023   3.993 -0.7567  0.8917  0.5570
 5715TIP3    H217575   0.353   5.950   3.999 -1.4263 -0.5634 -1.7709
 5716TIP3   OH217576   2.963   6.039   5.666 -0.3372  0.1643  1.0992
 5716TIP3    H117577   2.966   6.129   5.635  0.9747  0.0176  0.7538
 5716TIP3    H217578   2.974   6.046   5.761 -2.3006  0.4829  1.3234
 5717TIP3   OH217579   2.823   3.298   4.200  0.3111 -0.1376 -0.0578
 5717TIP3    H117580   2.859   3.309   4.112 -0.0964  0.1782 -0.1857
 5717TIP3    H217581   2.898   3.272   4.254  0.2794 -1.8003 -0.7878
 5718TIP3   OH217582   0.232   0.816   4.028 -0.0755 -0.2361  0.0950
 5718TIP3    H117583   0.232   0.805   3.933 -2.2332  3.7885 -0.4697
 5718TIP3    H217584   0.308   0.871   4.046 -0.0094 -0.4966  0.6128
 5719TIP3   OH217585   2.415   3.611   3.962 -0.5466  0.3619  0.1799
 5719TIP3    H117586   2.328   3.621   3.925 -1.3250 -0.7842  1.6467
 5719TIP3    H217587   2.419   3.675   4.033  0.6107  1.9193 -1.2515
 5720TIP3   OH217588   2.191   5.023   5.080 -0.0490  0.0260  0.0521
 5720TIP3    H117589   2.165   4.991   4.994  1.4105 -1.4277  0.1328
 5720TIP3    H217590   2.266   5.079   5.064 -1.1013  1.4908  0.1689
 5721TIP3   OH217591   2.594   4.059   0.106 -0.1761  0.6078  0.1458
 5721TIP3    H117592   2.599   4.148   0.140 -1.6112  0.0669  1.8587
 5721TIP3    H217593   2.591   4.069   0.011  0.5404  2.3273  0.3022
 5722TIP3   OH217594   1.992   4.644   0.407 -0.2108  0.4875 -0.0132
 5722TIP3    H117595   1.935   4.570   0.388 -0.7684  0.8711  0.1806
 5722TIP3    H217596   2.034   4.664   0.323 -1.1632  0.8921 -0.3973
 5723TIP3   OH217597   1.661   0.703   5.459 -0.3432  0.7091 -0.3312
 5723TIP3    H117598   1.604   0.761   5.509  1.4120  1.2075  1.1708
 5723TIP3    H217599   1.630   0.615   5.479 -0.1242  0.9404  1.0779
 5724TIP3   OH217600   1.798   5.806   5.747 -0.5421 -0.3164  0.0887
 5724TIP3    H117601   1.891   5.798   5.767 -0.6412  2.2093  1.8608
 5724TIP3    H217602   1.793   5.881   5.687 -1.4092 -0.7872 -0.4465
 5725TIP3   OH217603   4.704   5.264   5.667  0.8027  0.2999  0.4060
 5725TIP3    H117604   4.696   5.354   5.700 -1.0764  0.3406 -0.0770
 5725TIP3    H217605   4.701   5.273   5.572 -0.6648 -0.3399  0.3634
 5726TIP3   OH217606   1.444   5.419   1.160 -0.9870  0.4472 -0.1512
 5726TIP3    H117607   1.400   5.348   1.206 -0.9635  0.7498  0.3315
 5726TIP3    H217608   1.390   5.435   1.083 -1.0078 -0.0740 -0.2478
 5727TIP3   OH217609   1.332   5.965   2.434  0.3884  0.1407 -0.1708
 5727TIP3    H117610   1.394   5.909   2.388  0.1346  0.1430 -0.5141
 5727TIP3    H217611   1.343   6.051   2.394  0.6385  0.2901  0.2212
 5728TIP3   OH217612   3.008   5.334   6.037 -0.3180 -0.3409 -0.0674
 5728TIP3    H117613   3.035   5.242   6.036 -0.7532 -0.4741 -0.0908
 5728TIP3    H217614   3.075   5.379   6.088  0.5784 -0.4529 -1.1479
 5729TIP3   OH217615   5.911   5.286   3.476 -0.4225  0.5910 -0.2205
 5729TIP3    H117616   5.968   5.215   3.505 -0.5398  0.0187 -1.3463
 5729TIP3    H217617   5.901   5.342   3.553  0.5262 -0.0463  0.3796
 5730TIP3   OH217618   0.371   4.131   5.422 -0.5378  0.4103  0.4702
 5730TIP3    H117619   0.347   4.047   5.461 -1.8383  0.9209  0.7808
 5730TIP3    H217620   0.379   4.111   5.328 -0.0734 -0.2210  0.6366
 5731TIP3   OH217621   0.848   4.134   0.048 -0.0121  0.2357 -0.0619
 5731TIP3    H117622   0.764   4.178   0.035 -0.3612 -0.1532  0.8304
 5731TIP3    H217623   0.861   4.135   0.143  1.2788  0.8212 -0.2433
 5732TIP3   OH217624   1.478   4.302   4.976  0.0555  0.0135  0.0283
 5732TIP3    H117625   1.485   4.249   4.896 -1.4512  1.2896 -0.9805
 5732TIP3    H217626   1.410   4.366   4.956  0.5741  1.1750  1.8883
 5733TIP3   OH217627   2.632   0.035   4.161  0.2316 -0.1324  0.0297
 5733TIP3    H117628   2.629  -0.002   4.249  0.3260  1.3459  0.6765
 5733TIP3    H217629   2.551   0.007   4.119  1.6996 -3.6465 -0.5935
 5734TIP3   OH217630   1.647   3.896   3.260 -0.4351  0.1523 -0.1275
 5734TIP3    H117631   1.555   3.886   3.284 -0.5580  0.8272 -0.3201
 5734TIP3    H217632   1.648   3.967   3.196 -0.1023 -1.5335 -2.0601
 5735TIP3   OH217633   6.066   4.103   4.552 -0.0738  0.1118 -0.3615
 5735TIP3    H117634   6.082   4.072   4.463  2.8468  1.7573 -0.4548
 5735TIP3    H217635   6.025   4.189   4.540  1.1249  0.7238 -0.1399
 5736TIP3   OH217636   1.473   4.249   5.239 -0.2218 -0.3708  0.4640
 5736TIP3    H117637   1.388   4.284   5.267  0.1873  1.3570 -0.3543
 5736TIP3    H217638   1.480   4.275   5.147  1.0596 -0.7781  0.4407
 5737TIP3   OH217639   1.522   3.527   4.790  0.1186 -0.3970 -0.2702
 5737TIP3    H117640   1.514   3.576   4.871 -0.6489 -0.3787 -0.3457
 5737TIP3    H217641   1.535   3.436   4.817  1.1701 -0.2017 -0.1299
 5738TIP3   OH217642   0.577   4.199   0.045  0.3873  0.2000  0.5611
 5738TIP3    H117643   0.501   4.237   0.001 -0.2177 -0.4675  1.0298
 5738TIP3    H217644   0.567   4.105   0.035  0.8141  0.0824  1.1839
 5739TIP3   OH217645   1.345   5.488   3.010 -0.1940  0.2485 -0.1675
 5739TIP3    H117646   1.402   5.432   3.062  0.2713  1.4623  0.6500
 5739TIP3    H217647   1.404   5.533   2.950 -0.4890  0.3675 -0.3734
 5740TIP3   OH217648   0.156   3.913   0.037  0.0887  0.5993 -0.0086
 5740TIP3    H117649   0.173   3.924  -0.057  0.1498  1.2163  0.0716
 5740TIP3    H217650   0.103   3.989   0.060  2.4705  1.9795  1.0588
 5741TIP3   OH217651   2.976   4.050   5.071  0.9848  0.2642 -0.1139
 5741TIP3    H117652   2.901   4.060   5.013  0.5985  1.0101  0.5024
 5741TIP3    H217653   2.944   3.991   5.140  1.7590 -1.4416 -1.1856
 5742TIP3   OH217654   0.801   4.954   1.439 -0.3087 -0.0236  0.0242
 5742TIP3    H117655   0.777   5.043   1.416  2.8528  0.3957 -2.0756
 5742TIP3    H217656   0.884   4.963   1.485  0.1475 -1.8704 -0.3910
 5743TIP3   OH217657   1.109   5.775   4.109 -0.2847 -0.0991 -0.1638
 5743TIP3    H117658   1.129   5.719   4.184  1.0448  0.0637 -0.3781
 5743TIP3    H217659   1.020   5.806   4.125 -0.4170 -0.9516  0.7891
 5744TIP3   OH217660   0.544   3.451   0.369  0.1675 -0.1729 -0.4887
 5744TIP3    H117661   0.517   3.454   0.278  0.6737  1.7348 -0.5964
 5744TIP3    H217662   0.464   3.470   0.419 -0.5598 -3.1891 -0.4122
 5745TIP3   OH217663   1.528   3.739   5.766 -0.1353  0.3349  0.2261
 5745TIP3    H117664   1.510   3.645   5.756 -0.1600  0.2345  1.2252
 5745TIP3    H217665   1.602   3.744   5.826 -1.6125  1.0293  2.0558
 5746TIP3   OH217666   0.215   0.586   2.715 -0.1092 -0.7306  0.7072
 5746TIP3    H117667   0.235   0.669   2.672  1.5022 -2.1364 -1.3640
 5746TIP3    H217668   0.299   0.541   2.719 -0.6328 -1.5144  3.5035
 5747TIP3   OH217669   1.477   2.926   3.629 -0.0446 -0.0577  0.0308
 5747TIP3    H117670   1.514   3.013   3.614 -1.3772  0.5963  0.4518
 5747TIP3    H217671   1.526   2.892   3.703  0.1403  0.5372  0.1879
 5748TIP3   OH217672   1.232   2.250   4.978 -0.0431 -0.5931  0.0952
 5748TIP3    H117673   1.282   2.311   5.033  1.4527 -0.4256 -1.3908
 5748TIP3    H217674   1.212   2.301   4.899  0.8580 -1.8777 -0.9762
 5749TIP3   OH217675   3.017   4.339   4.546 -0.0681 -0.3015  0.3345
 5749TIP3    H117676   2.973   4.374   4.469 -0.5289 -1.1829  0.1953
 5749TIP3    H217677   3.028   4.246   4.528  0.0691 -0.4642  1.2196
 5750TIP3   OH217678   6.048   0.525   3.944  0.0767 -0.1101 -0.6716
 5750TIP3    H117679   6.011   0.538   3.857 -0.1644  0.2494 -0.5179
 5750TIP3    H217680   6.042   0.431   3.959 -0.6973 -0.0669 -0.6802
 5751TIP3   OH217681   5.074   0.877   5.843  0.1069 -0.5452 -0.6711
 5751TIP3    H117682   5.016   0.943   5.881  2.4855  0.6794  0.9401
 5751TIP3    H217683   5.047   0.794   5.884 -0.5803 -0.0120 -0.0441
 5752TIP3   OH217684   5.682   3.246   4.486  0.4083 -0.1806 -0.2502
 5752TIP3    H117685   5.766   3.210   4.458  1.5830 -0.8281  3.7766
 5752TIP3    H217686   5.626   3.170   4.498  0.4821 -0.0768  0.8140
 5753TIP3   OH217687   0.172   1.621   1.830 -0.3339 -0.7132  0.3163
 5753TIP3    H117688   0.171   1.632   1.735 -0.5155  0.2436  0.4266
 5753TIP3    H217689   0.186   1.709   1.864 -0.2403 -1.0609  1.1770
 5754TIP3   OH217690   2.379   4.982   4.235  0.3116  0.0011 -0.2114
 5754TIP3    H117691   2.372   5.065   4.187  0.4640 -0.5756 -1.2656
 5754TIP3    H217692   2.472   4.957   4.227 -0.1249 -1.2879 -1.7006
 5755TIP3   OH217693   5.885   4.506   2.408  0.7949 -0.7366  0.3803
 5755TIP3    H117694   5.947   4.485   2.339 -1.0296  1.5179 -2.0445
 5755TIP3    H217695   5.899   4.600   2.425 -0.6969 -0.6244  1.0872
 5756TIP3   OH217696   3.424   3.138   1.104 -0.0597  0.0528  0.2220
 5756TIP3    H117697   3.392   3.125   1.015 -1.7156  0.9135  0.6732
 5756TIP3    H217698   3.512   3.100   1.104 -0.1859 -0.2697 -1.6745
 5757TIP3   OH217699   0.228   3.352   3.968  0.1477 -0.2432 -0.3002
 5757TIP3    H117700   0.203   3.368   4.060  0.3840  1.0655 -0.4464
 5757TIP3    H217701   0.194   3.429   3.921  2.9215  0.7281 -0.7799
 5758TIP3   OH217702   0.759   5.198   5.173 -0.1485 -0.4661  0.0015
 5758TIP3    H117703   0.744   5.284   5.134 -0.0553 -1.1119 -1.5007
 5758TIP3    H217704   0.829   5.159   5.120  0.9432 -0.8386  1.6700
 5759TIP3   OH217705   1.412   4.299   2.768 -0.3153  0.2261 -0.3886
 5759TIP3    H117706   1.320   4.305   2.793 -0.1333 -1.7935  0.8916
 5759TIP3    H217707   1.458   4.276   2.849  1.2623  0.7200 -1.1107
 5760TIP3   OH217708   2.630   4.839   4.679 -0.0692 -0.5691  0.3770
 5760TIP3    H117709   2.650   4.842   4.585 -0.6401 -0.8048  0.2441
 5760TIP3    H217710   2.586   4.923   4.696  0.3755 -0.3653  0.5117
 5761TIP3   OH217711   1.111   3.488   2.543  0.8912  0.4156  0.1749
 5761TIP3    H117712   1.096   3.397   2.566  1.5317  0.2981  0.1268
 5761TIP3    H217713   1.030   3.515   2.499  0.5674 -0.0236  0.5025
 5762TIP3   OH217714   6.090   5.025   1.476 -0.2224  0.0403  0.5317
 5762TIP3    H117715   6.041   4.951   1.511 -0.0894 -0.0932  0.4365
 5762TIP3    H217716   6.146   4.987   1.409 -0.5533  0.3102  0.1009
 5763TIP3   OH217717   0.359   4.116   3.872 -0.2634 -0.3537  0.0813
 5763TIP3    H117718   0.434   4.058   3.863 -0.3248 -0.9728  2.9606
 5763TIP3    H217719   0.385   4.197   3.829  2.6929 -0.0074  2.3796
 5764TIP3   OH217720   2.358   5.088   0.225 -0.1106  0.0660 -0.2480
 5764TIP3    H117721   2.331   5.153   0.289 -2.6235 -0.6466 -0.5565
 5764TIP3    H217722   2.352   5.005   0.271 -0.5804 -0.3126 -0.9909
 5765TIP3   OH217723   4.476   4.779   4.136  0.5135 -0.1747  0.5232
 5765TIP3    H117724   4.462   4.687   4.156 -2.6714 -0.0248 -0.7693
 5765TIP3    H217725   4.442   4.826   4.212  1.7305 -0.0318  0.9897
 5766TIP3   OH217726   1.821   5.466   4.562 -0.2475 -0.0351 -0.2329
 5766TIP3    H117727   1.850   5.378   4.539  1.3251  0.1163  1.0225
 5766TIP3    H217728   1.868   5.486   4.643 -0.4765  2.0129 -0.5691
 5767TIP3   OH217729   2.144   5.191   5.303 -0.0091  0.3745  0.0813
 5767TIP3    H117730   2.164   5.131   5.231 -1.6938 -0.8188  0.5635
 5767TIP3    H217731   2.205   5.264   5.292  1.3821 -0.9475 -1.1200
 5768TIP3   OH217732   2.745   4.618   4.895 -0.2776  0.7370  0.0042
 5768TIP3    H117733   2.790   4.617   4.810 -0.5045  0.5852 -0.1145
 5768TIP3    H217734   2.652   4.627   4.873 -0.3022  1.0795  0.2522
 5769TIP3   OH217735   3.714   0.619   4.960  0.0880 -1.1431 -0.0448
 5769TIP3    H117736   3.747   0.701   4.996 -3.6572  0.7124 -0.5999
 5769TIP3    H217737   3.751   0.615   4.872  0.2848 -0.0431 -0.0210
 5770TIP3   OH217738   0.957   5.186   5.393  0.2911  0.4877 -0.6057
 5770TIP3    H117739   0.920   5.262   5.439 -1.5161 -0.9280  0.3157
 5770TIP3    H217740   0.906   5.180   5.312 -0.8991 -0.8872  0.2207
 5771TIP3   OH217741   2.666   4.146   5.548 -0.2225 -0.2568 -0.3035
 5771TIP3    H117742   2.667   4.051   5.559 -0.5358 -0.0494  1.6968
 5771TIP3    H217743   2.573   4.168   5.542 -0.2151  0.0671  0.6940
 5772TIP3   OH217744   2.318   5.313   3.057  0.1079 -0.0716 -0.5275
 5772TIP3    H117745   2.260   5.374   3.103  0.4783  1.0604 -1.5348
 5772TIP3    H217746   2.374   5.277   3.126 -0.2952  0.5267  0.1215
 5773TIP3   OH217747   3.888   0.880   4.719  0.2009  0.2903 -0.4153
 5773TIP3    H117748   3.794   0.887   4.700  0.4699  1.3571 -1.4341
 5773TIP3    H217749   3.909   0.789   4.702 -0.5465  0.1649 -0.7182
 5774TIP3   OH217750   5.876   5.592   5.181 -0.1464 -0.4152 -0.7360
 5774TIP3    H117751   5.876   5.500   5.155  1.0860 -0.7024  0.2614
 5774TIP3    H217752   5.968   5.618   5.179 -0.2821  0.2509  0.8629
 5775TIP3   OH217753   0.207   0.264   0.271  0.0086  0.0501 -0.0157
 5775TIP3    H117754   0.287   0.315   0.256  0.1570  0.1409  1.0228
 5775TIP3    H217755   0.170   0.251   0.184  0.1391  1.6529 -0.3341
 5776TIP3   OH217756   0.978   3.661   0.938  0.3979 -0.4341 -0.3169
 5776TIP3    H117757   0.911   3.729   0.935  1.6942  0.8761 -0.1039
 5776TIP3    H217758   1.008   3.653   0.847 -1.2617 -2.2863 -0.7374
 5777TIP3   OH217759   4.852   5.593   0.076  0.3350  0.3888  0.1646
 5777TIP3    H117760   4.908   5.656   0.030 -1.1916  1.1824 -0.6446
 5777TIP3    H217761   4.781   5.574   0.014 -0.3885 -0.4726  1.2336
 5778TIP3   OH217762   0.684   2.695   5.612  0.1008  0.1132 -0.3461
 5778TIP3    H117763   0.638   2.622   5.653 -1.9184 -0.0007 -2.6779
 5778TIP3    H217764   0.639   2.773   5.645  1.3941  0.2581  1.1107
 5779TIP3   OH217765   1.981   1.428   0.876  0.2197  0.3471 -1.2669
 5779TIP3    H117766   2.049   1.493   0.864  0.1897  0.6408  0.0294
 5779TIP3    H217767   1.974   1.383   0.792  0.9884  1.2949 -1.8355
 5780TIP3   OH217768   1.210   5.826   5.077  0.0425 -0.0489  0.0676
 5780TIP3    H117769   1.259   5.743   5.083  1.0735  0.5587  0.2189
 5780TIP3    H217770   1.243   5.878   5.151 -1.2667  0.1533  0.5211
 5781TIP3   OH217771   2.205   0.088   3.565 -0.0981 -0.6157  0.1209
 5781TIP3    H117772   2.285   0.110   3.517 -0.2962 -0.3007 -0.0628
 5781TIP3    H217773   2.236   0.064   3.653  0.1842 -0.3793  0.0856
 5782TIP3   OH217774   3.207   4.916   3.403 -0.9472  0.2836  0.1615
 5782TIP3    H117775   3.132   4.870   3.442 -0.3347 -1.2640 -0.4474
 5782TIP3    H217776   3.168   4.992   3.359 -2.0019  0.2444  1.0063
 5783TIP3   OH217777   1.299   3.806   6.051 -0.0670 -0.2258  0.6818
 5783TIP3    H117778   1.216   3.849   6.070 -0.6492 -1.7274  1.6051
 5783TIP3    H217779   1.282   3.713   6.063  1.2946 -0.7094 -0.8240
 5784TIP3   OH217780   0.473   1.448   4.133  0.0695  0.3239  0.4315
 5784TIP3    H117781   0.517   1.506   4.196  0.9514 -0.8674  0.9480
 5784TIP3    H217782   0.384   1.440   4.166 -0.1653  1.6586  0.1529
 5785TIP3   OH217783   5.539   2.770   3.420  0.0685  0.6174  0.3970
 5785TIP3    H117784   5.588   2.848   3.392 -0.7912  0.6702 -1.0036
 5785TIP3    H217785   5.530   2.718   3.340 -0.0739 -0.5424  1.1571
 5786TIP3   OH217786   1.124   5.705   1.642  0.1928 -0.0114 -0.5904
 5786TIP3    H117787   1.208   5.671   1.611  1.0908  2.7107 -1.2289
 5786TIP3    H217788   1.142   5.738   1.730 -0.3657 -0.0059 -0.4753
 5787TIP3   OH217789   1.495   4.975   4.857 -0.7535  0.2471  0.3063
 5787TIP3    H117790   1.587   5.001   4.856 -0.9821  1.1125  0.8641
 5787TIP3    H217791   1.496   4.881   4.840  0.3126  0.0376  1.4428
 5788TIP3   OH217792   5.598   4.110   3.859 -0.1000  0.1337 -0.0753
 5788TIP3    H117793   5.600   4.125   3.953  0.2772 -0.5801  0.0258
 5788TIP3    H217794   5.504   4.109   3.837 -0.1848  0.4409  0.2640
 5789TIP3   OH217795   6.036   3.923   5.659 -0.4952  0.1115 -0.0918
 5789TIP3    H117796   6.046   4.014   5.631 -1.1547 -0.0113 -0.7620
 5789TIP3    H217797   6.096   3.874   5.603  0.0428  0.1599  0.4385
 5790TIP3   OH217798   5.984   5.581   4.639 -0.1354  0.1017 -0.1123
 5790TIP3    H117799   6.008   5.551   4.551  3.1977  0.9562  0.4257
 5790TIP3    H217800   5.989   5.676   4.634  2.5657  0.1151  1.5748
 5791TIP3   OH217801   0.697   0.603   3.915 -0.0920  0.3211  0.5000
 5791TIP3    H117802   0.649   0.677   3.877 -0.2913 -0.5340 -0.9612
 5791TIP3    H217803   0.769   0.643   3.963 -0.2804  1.4726 -0.1538
 5792TIP3   OH217804   2.236   5.195   5.985  0.0822 -0.1794  0.5846
 5792TIP3    H117805   2.305   5.254   5.954 -0.7499  0.2546 -0.4834
 5792TIP3    H217806   2.227   5.215   6.078 -0.2961  1.4958  0.1964
 5793TIP3   OH217807   1.582   0.321   4.235 -0.0183  0.1512  0.1905
 5793TIP3    H117808   1.617   0.268   4.307 -0.5436 -1.0475 -0.4095
 5793TIP3    H217809   1.650   0.385   4.216  0.6562 -0.3467  0.8967
 5794TIP3   OH217810   0.711   0.886   2.087 -0.0884  0.0023  0.9133
 5794TIP3    H117811   0.620   0.897   2.115 -0.6558  0.3804 -1.0086
 5794TIP3    H217812   0.740   0.805   2.129 -1.8404 -1.0150  0.1949
 5795TIP3   OH217813   1.922   4.833   4.447 -0.3896  0.4390 -0.0607
 5795TIP3    H117814   1.920   4.756   4.392 -2.1141  0.1952  0.3363
 5795TIP3    H217815   1.973   4.897   4.397 -1.1815 -0.0712 -1.5189
 5796TIP3   OH217816   2.506   5.009   6.091  0.3773 -0.4839 -0.1213
 5796TIP3    H117817   2.573   4.983   6.155  0.1017 -0.1500  0.3035
 5796TIP3    H217818   2.436   5.048   6.144 -0.2892 -1.1129 -0.5400
 5797TIP3   OH217819   4.469   2.065   3.205  0.2658 -0.0616 -0.3121
 5797TIP3    H117820   4.437   2.043   3.117 -1.2279  1.6893 -0.2398
 5797TIP3    H217821   4.543   2.005   3.219 -0.4865 -1.4731 -2.0987
 5798TIP3   OH217822   0.160   4.935   5.317  0.0311 -0.3445 -0.1763
 5798TIP3    H117823   0.156   5.015   5.264  0.3041  0.7638  1.4364
 5798TIP3    H217824   0.254   4.920   5.330 -0.0415  1.9168  3.6473
 5799TIP3   OH217825   1.599   5.016   5.559 -0.4931 -0.0256  0.0281
 5799TIP3    H117826   1.505   5.008   5.570 -0.3233 -0.5732  1.1207
 5799TIP3    H217827   1.625   5.091   5.613 -0.2679 -0.0376 -0.0590
 5800TIP3   OH217828   5.804   0.261   4.843  0.4398 -0.3959 -0.2538
 5800TIP3    H117829   5.768   0.294   4.760 -0.2547  0.7051  0.4617
 5800TIP3    H217830   5.729   0.261   4.903  1.0760 -0.5454  0.5554
 5801TIP3   OH217831   0.242   5.538   5.490 -0.5560 -0.0836  0.1149
 5801TIP3    H117832   0.220   5.621   5.533 -1.2136 -0.2763  0.1545
 5801TIP3    H217833   0.335   5.545   5.471 -0.5213  0.5024  0.4833
 5802TIP3   OH217834   5.597   4.900   5.563  0.5799 -0.5556  0.6336
 5802TIP3    H117835   5.659   4.936   5.500  0.0721  0.9970  1.0082
 5802TIP3    H217836   5.646   4.896   5.645  0.2177  0.6374  0.9212
 5803TIP3   OH217837   4.116   5.109   2.954  0.2418  0.3129  0.8897
 5803TIP3    H117838   4.033   5.157   2.953  0.8876  1.4439 -0.9894
 5803TIP3    H217839   4.091   5.017   2.951 -0.9428  0.6615 -0.0763
 5804TIP3   OH217840   2.159   4.350   6.023  0.3007  0.6791 -0.0639
 5804TIP3    H117841   2.130   4.345   5.932  0.6444 -0.9053 -0.0939
 5804TIP3    H217842   2.078   4.369   6.072 -0.2795 -0.6442 -0.4772
 5805TIP3   OH217843   2.265   4.959   3.170  0.2816 -0.3591 -0.0412
 5805TIP3    H117844   2.213   4.992   3.244 -0.0032  1.2545 -0.9380
 5805TIP3    H217845   2.356   4.970   3.198  0.1766 -0.4162  0.3340
 5806TIP3   OH217846   0.001   2.239   0.461  0.3179  0.5105 -0.4245
 5806TIP3    H117847   0.075   2.296   0.481  0.5243  0.3626 -0.7779
 5806TIP3    H217848  -0.021   2.258   0.370  0.2403  0.1927 -0.4743
 5807TIP3   OH217849   3.305   4.603   3.042 -0.2922  0.2788 -0.0582
 5807TIP3    H117850   3.367   4.585   3.112  1.2486 -1.1963 -1.7321
 5807TIP3    H217851   3.219   4.592   3.082  0.5489  0.3430  1.7932
 5808TIP3   OH217852   0.333   5.472   5.134 -0.3586 -0.2479  0.0799
 5808TIP3    H117853   0.368   5.544   5.082 -0.1191 -0.3366  0.1157
 5808TIP3    H217854   0.411   5.422   5.162 -0.6366 -1.7491 -1.7297
 5809TIP3   OH217855   5.458   4.645   5.985 -0.3505  0.4616  0.1337
 5809TIP3    H117856   5.445   4.683   5.898 -2.3433  1.7849  0.9757
 5809TIP3    H217857   5.372   4.649   6.026  0.4747 -0.5550  2.0254
 5810TIP3   OH217858   1.572   5.863   4.280  0.0127  0.3214 -0.0290
 5810TIP3    H117859   1.515   5.832   4.209 -0.2251  0.4116  0.1226
 5810TIP3    H217860   1.630   5.926   4.237  1.6376 -1.5896 -0.6981
 5811TIP3   OH217861   5.631   4.786   0.984 -0.8431  0.0998 -0.0553
 5811TIP3    H117862   5.690   4.734   1.040 -0.7808  0.9955  0.7312
 5811TIP3    H217863   5.690   4.845   0.937 -0.9085 -0.5726 -0.9862
 5812TIP3   OH217864   1.978   5.590   5.082  0.5169  0.1571  0.1087
 5812TIP3    H117865   1.917   5.663   5.067  1.4713  0.9096 -0.1274
 5812TIP3    H217866   1.963   5.531   5.009  0.6091  0.7134 -0.3594
 5813TIP3   OH217867   0.035   2.675   5.523  0.7771 -0.0364 -0.3868
 5813TIP3    H117868   0.078   2.591   5.513  0.1662 -0.4446  0.3440
 5813TIP3    H217869  -0.016   2.667   5.604 -1.3037  0.1549 -1.6307
 5814TIP3   OH217870   2.541   0.425   4.164 -0.4140  0.1430 -0.2135
 5814TIP3    H117871   2.621   0.414   4.113  0.8950 -0.0490  1.8207
 5814TIP3    H217872   2.513   0.336   4.185 -0.0238  0.2473  0.7800
 5815TIP3   OH217873   5.335   3.346   0.414 -0.1555  0.3177 -0.2639
 5815TIP3    H117874   5.348   3.269   0.469 -0.3643  0.2717 -0.2799
 5815TIP3    H217875   5.252   3.330   0.369  0.9386 -0.5180 -2.0317
 5816TIP3   OH217876   5.683   4.610   5.341  0.0964 -0.6932 -0.1107
 5816TIP3    H117877   5.708   4.696   5.306 -1.4087  0.5349  1.7308
 5816TIP3    H217878   5.713   4.612   5.431 -1.9016 -1.2206  0.5935
 5817TIP3   OH217879   0.029   4.100   5.299  0.0182 -0.4415  0.5412
 5817TIP3    H117880  -0.013   4.101   5.213 -1.1139  0.2764  1.0838
 5817TIP3    H217881   0.043   4.007   5.317  0.0379 -0.6068 -0.3177
 5818TIP3   OH217882   1.635   2.066   1.771  1.2066 -0.0417  0.8322
 5818TIP3    H117883   1.640   1.971   1.767  2.9040  0.1071 -2.4760
 5818TIP3    H217884   1.665   2.088   1.859  3.9508 -2.4101  0.5506
 5819TIP3   OH217885   0.656   2.329   0.894  0.3847 -0.0910  0.1087
 5819TIP3    H117886   0.712   2.390   0.846  1.1663 -1.1992 -0.4105
 5819TIP3    H217887   0.716   2.278   0.949 -0.0050 -1.7119 -0.9138
 5820TIP3   OH217888   0.168   5.948   3.214 -0.0396  0.5009 -0.0509
 5820TIP3    H117889   0.154   6.028   3.162 -1.1673  0.2105 -0.2080
 5820TIP3    H217890   0.262   5.930   3.205  0.0338  1.2272 -0.8692
 5821TIP3   OH217891   3.935   3.968   5.222  0.5065  0.2667 -0.2428
 5821TIP3    H117892   3.998   4.036   5.242  1.5967 -0.9466  0.5161
 5821TIP3    H217893   3.859   3.988   5.277  0.9484  0.6917  0.2158
 5822TIP3   OH217894   0.111   3.441   5.681  0.0914 -0.0884  0.7837
 5822TIP3    H117895   0.150   3.386   5.613  0.6974  1.0411  0.1901
 5822TIP3    H217896   0.187   3.482   5.725 -0.3378  0.2132  1.2553
 5823TIP3   OH217897   0.685   3.933   5.172  0.6925  0.0858  0.6497
 5823TIP3    H117898   0.716   3.843   5.166  1.6994  0.5180 -1.1383
 5823TIP3    H217899   0.717   3.975   5.092 -1.0532  1.6388  0.7233
 5824TIP3   OH217900   1.758   3.849   1.788 -0.2588  0.4764 -0.1947
 5824TIP3    H117901   1.723   3.905   1.718  0.4057  0.2009 -0.7542
 5824TIP3    H217902   1.834   3.806   1.748 -1.8872 -2.3124 -0.4082
 5825TIP3   OH217903   5.000   3.766   0.617  0.3645  0.1054  0.2358
 5825TIP3    H117904   5.053   3.822   0.560 -0.9167  1.1770  0.0691
 5825TIP3    H217905   5.053   3.687   0.629  1.1272  0.3148 -1.5477
 5826TIP3   OH217906   0.580   2.947   4.250  0.3676 -0.2083 -0.1350
 5826TIP3    H117907   0.581   2.901   4.166  2.3699 -2.5338  1.0940
 5826TIP3    H217908   0.541   2.885   4.311  0.2783  0.8950  0.9526
 5827TIP3   OH217909   5.843   3.291   0.923  0.2588  0.2742  0.0328
 5827TIP3    H117910   5.806   3.337   0.848 -1.3206 -1.0685 -0.0449
 5827TIP3    H217911   5.810   3.338   1.000  0.2561  0.4600 -0.0829
 5828TIP3   OH217912   0.476   5.087   4.204  0.4167  0.1060 -0.3443
 5828TIP3    H117913   0.450   5.073   4.295  0.5313  0.0833 -0.3154
 5828TIP3    H217914   0.527   5.168   4.205 -0.0236  0.3878 -0.4715
 5829TIP3   OH217915   1.184   5.942   3.198 -0.1010  0.2513  0.4535
 5829TIP3    H117916   1.229   6.023   3.171  3.7970 -0.6133  3.8329
 5829TIP3    H217917   1.133   5.968   3.274  0.2002 -0.2459  0.8188
 5830TIP3   OH217918   4.709   0.582   0.117  0.2803  0.0849 -0.0384
 5830TIP3    H117919   4.663   0.499   0.127  2.0859 -1.2624 -2.4999
 5830TIP3    H217920   4.780   0.578   0.181 -0.6023  0.4894  0.9979
 5831TIP3   OH217921   3.294   5.317   1.561  0.2304 -0.6802  0.0912
 5831TIP3    H117922   3.210   5.353   1.533 -0.1134 -2.5500 -1.3994
 5831TIP3    H217923   3.278   5.287   1.651 -0.2090  0.4918  0.4111
 5832TIP3   OH217924   3.397   4.243   5.442  0.0887 -0.2033  0.0092
 5832TIP3    H117925   3.367   4.197   5.520  0.3628 -1.0392 -0.3703
 5832TIP3    H217926   3.419   4.173   5.380  0.8893  0.4405 -0.4351
 5833TIP3   OH217927   0.588   4.499   5.456 -0.2718  0.4525  0.1024
 5833TIP3    H117928   0.527   4.501   5.383 -1.3569  0.1747  0.9924
 5833TIP3    H217929   0.628   4.412   5.452  2.1476  1.6047 -2.1448
 5834TIP3   OH217930   2.549   4.292   2.882  0.1773  0.6737 -0.0312
 5834TIP3    H117931   2.565   4.329   2.796  0.6367  0.4913 -0.0285
 5834TIP3    H217932   2.629   4.243   2.902 -0.1080  0.3372  0.2981
 5835TIP3   OH217933   2.680   3.518   0.184  0.3554 -0.5694  0.4520
 5835TIP3    H117934   2.673   3.602   0.139  1.1984 -0.7576 -0.0319
 5835TIP3    H217935   2.630   3.457   0.129 -0.3650 -0.3694  0.8700
 5836TIP3   OH217936   2.039   0.537   4.466  0.1412  0.6617 -0.0383
 5836TIP3    H117937   2.101   0.480   4.419  1.5944  3.1882 -1.2875
 5836TIP3    H217938   2.073   0.540   4.556  0.0073 -0.4532  0.0650
 5837TIP3   OH217939   3.729   1.123   5.758  0.1216 -0.1426 -0.1236
 5837TIP3    H117940   3.742   1.039   5.802 -1.5195 -1.5080 -2.1072
 5837TIP3    H217941   3.641   1.150   5.784 -0.2374 -0.1772 -1.2818
 5838TIP3   OH217942   1.016   3.726   5.705  0.8360 -0.1139  0.1657
 5838TIP3    H117943   1.018   3.764   5.617  1.0278 -0.4660  0.0189
 5838TIP3    H217944   1.077   3.652   5.701  1.0904  0.0678  0.6875
 5839TIP3   OH217945   3.354   3.436   4.698  0.0275  0.2475 -0.1843
 5839TIP3    H117946   3.346   3.392   4.783  1.3090 -2.1603 -1.2768
 5839TIP3    H217947   3.399   3.518   4.718  0.4981 -0.3818  1.4479
 5840TIP3   OH217948   1.277   0.032   4.377 -0.3614  0.0102  0.7417
 5840TIP3    H117949   1.226  -0.013   4.310 -0.1410  1.8190 -0.6963
 5840TIP3    H217950   1.211   0.076   4.432 -0.4824 -0.2421  0.7983
 5841TIP3   OH217951   1.727   0.155   1.276 -0.6627  0.3607  0.4498
 5841TIP3    H117952   1.753   0.095   1.345  0.9025 -2.2799 -2.2787
 5841TIP3    H217953   1.789   0.228   1.282  1.7419 -1.5599 -0.3421
 5842TIP3   OH217954   5.766   2.998   4.283  0.3631 -0.5263 -0.5677
 5842TIP3    H117955   5.791   2.927   4.342 -1.1338 -0.5441  0.0722
 5842TIP3    H217956   5.733   2.954   4.205 -3.3880 -0.6653  0.9793
 5843TIP3   OH217957   3.437   4.618   4.517  0.3127  0.0529  0.4421
 5843TIP3    H117958   3.441   4.542   4.458  1.1621  1.2606 -1.0875
 5843TIP3    H217959   3.353   4.609   4.562  0.6716 -2.1400  0.7673
 5844TIP3   OH217960   1.302   5.136   3.888  0.8357  0.2185  0.4106
 5844TIP3    H117961   1.216   5.158   3.851  0.7357 -2.1652 -0.8573
 5844TIP3    H217962   1.283   5.112   3.979 -0.0847 -1.8353 -0.3048
 5845TIP3   OH217963   2.599   4.398   2.634 -0.3863  0.5730  0.0608
 5845TIP3    H117964   2.648   4.480   2.632 -1.1684  1.0668  0.8570
 5845TIP3    H217965   2.553   4.396   2.550  2.0991 -0.6083 -1.3480
 5846TIP3   OH217966   1.474   2.682   5.768  0.0745 -0.2572  0.0521
 5846TIP3    H117967   1.465   2.764   5.719 -1.0283 -1.1717 -1.3650
 5846TIP3    H217968   1.509   2.620   5.704  0.8992 -0.8862  1.1063
 5847TIP3   OH217969   0.901   1.256   3.033 -0.8025 -0.5673  0.5588
 5847TIP3    H117970   0.982   1.302   3.056  1.0518 -3.9818  1.1360
 5847TIP3    H217971   0.866   1.305   2.959  0.9747  1.8804  1.2644
 5848TIP3   OH217972   0.550   6.092   1.477 -0.1324  0.2346 -0.1997
 5848TIP3    H117973   0.590   6.034   1.412 -1.0035  1.1133 -1.5375
 5848TIP3    H217974   0.552   6.041   1.558  0.1240 -1.2377 -1.1052
 5849TIP3   OH217975   1.883   3.362   4.604 -0.0424  0.2758  0.3156
 5849TIP3    H117976   1.851   3.348   4.514 -3.2012 -0.6568  1.5121
 5849TIP3    H217977   1.876   3.457   4.617 -0.2714  0.3301 -0.1807
 5850TIP3   OH217978   2.263   5.419   4.456 -0.6677  0.0998  0.9403
 5850TIP3    H117979   2.227   5.357   4.520 -2.3421  0.2195  0.1395
 5850TIP3    H217980   2.293   5.493   4.509  0.6672 -1.0689  1.8373
 5851TIP3   OH217981   1.480   2.772   5.333  0.1497  0.2529 -0.2905
 5851TIP3    H117982   1.558   2.766   5.388  0.5397 -2.3759 -1.1130
 5851TIP3    H217983   1.413   2.808   5.392  0.9623 -1.1022  1.5006
 5852TIP3   OH217984   0.730   3.571   4.417 -0.0881 -0.1890 -0.2981
 5852TIP3    H117985   0.657   3.531   4.371 -1.6437  2.2793 -0.1036
 5852TIP3    H217986   0.710   3.558   4.510  0.1429 -0.2375 -0.2549
 5853TIP3   OH217987   5.960   3.296   4.745 -0.0971  0.0044  0.2186
 5853TIP3    H117988   5.892   3.326   4.684  0.1793  1.0472  0.4086
 5853TIP3    H217989   5.912   3.247   4.812 -1.0237  2.7383  1.6782
 5854TIP3   OH217990   2.996   3.609   3.634  0.4756  0.3756 -0.5290
 5854TIP3    H117991   2.995   3.614   3.539 -0.1334  2.2956 -0.4491
 5854TIP3    H217992   2.950   3.688   3.663 -0.7788 -0.9994  1.3450
 5855TIP3   OH217993   0.274   3.687   4.851 -0.3199 -0.4062  0.3945
 5855TIP3    H117994   0.181   3.670   4.868 -0.3930  0.7129  1.1778
 5855TIP3    H217995   0.275   3.757   4.786 -0.0345  0.5502  1.4128
 5856TIP3   OH217996   2.509   3.647   4.559 -0.1048 -0.7993  0.1458
 5856TIP3    H117997   2.441   3.672   4.622  0.1296 -0.3392  0.2180
 5856TIP3    H217998   2.477   3.680   4.475 -1.0758 -2.6192 -0.2194
 5857TIP3   OH217999   1.094   0.394   0.436 -0.0058 -0.1488  0.2319
 5857TIP3    H118000   1.077   0.303   0.457  1.0153 -0.0317  1.6118
 5857TIP3    H218001   1.089   0.440   0.520 -0.1001  1.0049 -0.3864
 5858TIP3   OH218002   0.167   5.823   5.273  0.0517 -0.4194  0.4177
 5858TIP3    H118003   0.221   5.754   5.311 -0.2000 -0.9888 -0.2465
 5858TIP3    H218004   0.221   5.902   5.277  1.1539 -1.1058 -0.7881
 5859TIP3   OH218005   2.235   5.315   3.862  0.1846  0.4757 -0.2173
 5859TIP3    H118006   2.264   5.275   3.944  0.9149  1.8052  0.1889
 5859TIP3    H218007   2.285   5.270   3.794 -0.0276 -0.2581  0.1081
 5860TIP3   OH218008   1.786   5.776   5.032 -0.0601 -0.2864  0.4520
 5860TIP3    H118009   1.788   5.853   5.089 -0.5869 -1.0055  1.4602
 5860TIP3    H218010   1.707   5.729   5.057 -0.3186 -0.6068 -0.9096
 5861TIP3   OH218011   0.284   3.432   1.357 -0.5007 -0.3531 -0.3556
 5861TIP3    H118012   0.324   3.515   1.334  0.8493 -0.4288  1.5618
 5861TIP3    H218013   0.262   3.391   1.274  0.6560  1.0300 -1.3593
 5862TIP3   OH218014   0.823   0.003   5.588 -0.2468  0.1092 -0.4007
 5862TIP3    H118015   0.852  -0.084   5.562 -0.9149 -0.6095  1.1890
 5862TIP3    H218016   0.777  -0.011   5.670 -0.6667  1.9239 -0.3106
 5863TIP3   OH218017   1.423   5.491   3.528  0.3370 -0.1799  0.0277
 5863TIP3    H118018   1.511   5.522   3.548  1.1190 -1.5955 -1.0836
 5863TIP3    H218019   1.393   5.549   3.458  0.1793  0.6054  0.7318
 5864TIP3   OH218020   1.958   5.300   3.559  0.1249  0.6217  0.4310
 5864TIP3    H118021   1.964   5.205   3.543  2.5587  0.8340  0.0009
 5864TIP3    H218022   1.993   5.311   3.647 -1.1605  1.0246  0.9100
 5865TIP3   OH218023   5.977   1.675   4.680 -0.0385  0.2944 -0.1240
 5865TIP3    H118024   5.993   1.749   4.737 -2.0724  1.0574 -0.4903
 5865TIP3    H218025   6.059   1.663   4.632  0.0940  2.7475 -0.5769
 5866TIP3   OH218026   2.065   5.791   5.782 -0.1726  0.2487  0.3897
 5866TIP3    H118027   2.110   5.875   5.784 -1.6093  1.0959 -1.1050
 5866TIP3    H218028   2.130   5.730   5.747  0.2150  1.1881 -0.5556
 5867TIP3   OH218029   1.904   4.754   3.851 -0.9018 -0.3456 -0.0922
 5867TIP3    H118030   1.908   4.849   3.864 -0.3952 -0.3235 -0.4312
 5867TIP3    H218031   1.994   4.727   3.834 -0.8834 -1.0373  1.0287
 5868TIP3   OH218032   0.514   3.484   4.295 -0.1314 -0.4529  0.3794
 5868TIP3    H118033   0.454   3.409   4.299  0.1999 -0.7480 -0.1693
 5868TIP3    H218034   0.474   3.545   4.234  0.1353 -0.6540  0.0056
 5869TIP3   OH218035   1.261   3.829   4.071  0.2346  0.3471 -0.1051
 5869TIP3    H118036   1.181   3.881   4.084 -0.1499 -0.0032 -1.0216
 5869TIP3    H218037   1.234   3.757   4.013  1.2284  0.2733 -0.4917
 5870TIP3   OH218038   4.514   2.887   3.799  0.2792  0.1364  0.3538
 5870TIP3    H118039   4.480   2.808   3.758  1.3503  0.2066 -0.7023
 5870TIP3    H218040   4.578   2.856   3.863  0.9464  0.1486 -0.2980
 5871TIP3   OH218041   2.181   2.522   4.535  0.2605 -0.0355  0.3861
 5871TIP3    H118042   2.137   2.458   4.592  0.9202 -0.0021  0.9379
 5871TIP3    H218043   2.161   2.607   4.575  1.7615 -0.0936  1.3009
 5872TIP3   OH218044   1.057   0.845   4.517 -0.3272  0.3601  0.1455
 5872TIP3    H118045   0.966   0.871   4.504 -0.3268 -0.7576 -2.5275
 5872TIP3    H218046   1.108   0.925   4.499 -0.7128  0.6305  0.2553
 5873TIP3   OH218047   2.602   5.285   4.151  0.1136 -0.0891 -0.1266
 5873TIP3    H118048   2.694   5.269   4.130  0.0334 -2.6517  1.2260
 5873TIP3    H218049   2.605   5.340   4.230  0.5101 -0.9902  0.4951
 5874TIP3   OH218050   5.645   3.024   3.370  0.3789 -0.3535  0.6683
 5874TIP3    H118051   5.583   3.048   3.301  0.2647  1.0521  1.2335
 5874TIP3    H218052   5.722   2.993   3.322 -0.4251 -1.2966 -0.0504
 5875TIP3   OH218053   5.893   1.157   5.567 -0.0255 -0.0892  0.1302
 5875TIP3    H118054   5.850   1.213   5.502  0.1818 -0.4154 -0.2904
 5875TIP3    H218055   5.827   1.093   5.592 -0.0211 -0.1260  0.0465
 5876TIP3   OH218056   5.641   1.828   4.742  0.6609  0.3475 -0.5323
 5876TIP3    H118057   5.679   1.793   4.822 -0.3797 -0.7597 -0.5079
 5876TIP3    H218058   5.684   1.913   4.730  1.2227  0.2784  0.8880
 5877TIP3   OH218059   6.036   3.214   3.122  0.4336 -0.1750  0.2064
 5877TIP3    H118060   6.095   3.208   3.197 -0.5633  0.4576  1.0488
 5877TIP3    H218061   5.997   3.127   3.116  0.7100 -0.3049  0.2412
 5878TIP3   OH218062   3.747   0.469   4.543  0.1572  0.1947 -0.9006
 5878TIP3    H118063   3.787   0.393   4.500 -0.3229 -0.7774  0.3202
 5878TIP3    H218064   3.653   0.456   4.530  0.0922  0.8205 -1.0670
 5879TIP3   OH218065   0.521   4.453   1.321  0.4803  0.1300 -0.4637
 5879TIP3    H118066   0.579   4.456   1.245 -0.6191 -1.4896 -1.4021
 5879TIP3    H218067   0.440   4.413   1.288 -1.1404  2.2047  0.8429
 5880TIP3   OH218068   0.591   3.321   5.882 -0.0783 -0.1222 -0.1585
 5880TIP3    H118069   0.628   3.241   5.846  0.0274  0.4348 -1.3105
 5880TIP3    H218070   0.511   3.293   5.926  0.2286 -0.9252 -0.1143
 5881TIP3   OH218071   6.018   5.852   4.503 -0.7667 -0.4667 -0.6567
 5881TIP3    H118072   5.955   5.923   4.495 -1.2035 -0.7100  0.5524
 5881TIP3    H218073   5.990   5.787   4.438 -1.0765 -0.0805 -0.9127
 5882TIP3   OH218074   1.328   4.800   0.257 -0.3278 -0.1458  0.8258
 5882TIP3    H118075   1.363   4.815   0.169  1.3884 -1.0275  1.3376
 5882TIP3    H218076   1.245   4.848   0.258 -0.5392 -0.3901 -1.3767
 5883TIP3   OH218077   0.739   3.695   5.560 -0.1295 -0.1790 -0.0018
 5883TIP3    H118078   0.735   3.770   5.620 -0.0699 -0.1383 -0.0489
 5883TIP3    H218079   0.793   3.630   5.606 -1.3344 -0.7389  0.6467
 5884TIP3   OH218080   0.625   3.044   4.860  0.2250  0.3285 -0.0528
 5884TIP3    H118081   0.579   3.096   4.926  1.0502  0.7249  0.2201
 5884TIP3    H218082   0.613   3.092   4.779  2.0365  1.6220  0.4228
 5885TIP3   OH218083   5.754   5.845   2.841  0.0572  0.4377 -0.2519
 5885TIP3    H118084   5.787   5.771   2.789  1.1091 -1.4756  2.9920
 5885TIP3    H218085   5.814   5.917   2.822  0.0449 -0.0192 -2.1473
 5886TIP3   OH218086   4.781   3.631   3.759  0.0035  0.0177 -0.0692
 5886TIP3    H118087   4.707   3.651   3.701 -0.9886 -2.1043  0.4153
 5886TIP3    H218088   4.759   3.673   3.842  0.3709  1.1682 -0.5373
 5887TIP3   OH218089   2.427   0.081   5.961  0.3978 -0.5809 -0.1508
 5887TIP3    H118090   2.414   0.096   6.054 -1.0271 -1.6236 -0.1646
 5887TIP3    H218091   2.444  -0.013   5.954  1.7865 -0.2924 -0.8140
 5888TIP3   OH218092   3.005   5.829   5.468  0.3705 -0.1503  0.1063
 5888TIP3    H118093   3.008   5.896   5.537  0.2473  0.3449 -0.3598
 5888TIP3    H218094   2.934   5.857   5.411  0.8891 -0.1937 -0.5765
 5889TIP3   OH218095   5.320   5.006   0.122 -0.3097  0.1909  0.2807
 5889TIP3    H118096   5.313   4.928   0.067  0.0353 -0.5718  1.3061
 5889TIP3    H218097   5.367   5.070   0.068  0.7183 -0.8163 -0.0222
 5890TIP3   OH218098   1.728   4.108   5.103 -0.1000 -0.7810  0.1873
 5890TIP3    H118099   1.762   4.154   5.180  0.4074 -0.2865 -0.3368
 5890TIP3    H218100   1.660   4.165   5.069 -0.3477 -1.0181  0.2753
 5891TIP3   OH218101   3.366   4.158   4.318  0.1944  0.4317 -0.0620
 5891TIP3    H118102   3.336   4.069   4.336 -0.0862  0.4164 -0.5840
 5891TIP3    H218103   3.289   4.202   4.280  0.6455  0.5674 -0.8427
 5892TIP3   OH218104   2.810   0.259   5.293 -0.6494 -0.3051  0.5252
 5892TIP3    H118105   2.828   0.181   5.240  0.2213  0.4722 -0.3317
 5892TIP3    H218106   2.800   0.225   5.382  0.2990 -1.3376  0.2537
 5893TIP3   OH218107   2.706   4.933   4.400  0.0525  0.2289  0.0827
 5893TIP3    H118108   2.776   4.869   4.385 -1.3977 -1.1087 -1.1593
 5893TIP3    H218109   2.736   5.012   4.356  0.0860 -0.8294 -1.8617
 5894TIP3   OH218110   3.492   3.735   4.517 -0.2211 -0.6249  0.1833
 5894TIP3    H118111   3.534   3.799   4.574 -1.6388  0.2983  0.2034
 5894TIP3    H218112   3.528   3.753   4.430 -2.0322  1.4832 -0.1673
 5895TIP3   OH218113   0.215   1.486   5.646  0.4232 -0.4623  0.0707
 5895TIP3    H118114   0.213   1.466   5.739  0.3742  1.4465  0.4997
 5895TIP3    H218115   0.124   1.500   5.621  0.5869  0.8158  0.1539
 5896TIP3   OH218116   2.795   5.998   4.870  0.1831  0.7022  0.1308
 5896TIP3    H118117   2.844   5.995   4.787  1.0416 -1.3864  0.6746
 5896TIP3    H218118   2.801   5.908   4.903 -1.9342  1.0386  1.4332
 5897TIP3   OH218119   3.157   6.060   0.305 -0.5786 -0.0171  0.2895
 5897TIP3    H118120   3.084   6.118   0.323 -0.0727  1.0068 -0.8376
 5897TIP3    H218121   3.143   5.985   0.361 -2.1520  0.4533  0.5455
 5898TIP3   OH218122   2.740   4.147   4.520  0.2475 -0.2207  0.0107
 5898TIP3    H118123   2.804   4.152   4.449  0.7051  0.5894  0.4747
 5898TIP3    H218124   2.709   4.056   4.517  0.2088 -0.1717 -1.2573
 5899TIP3   OH218125   2.482   5.912   5.888  0.3590 -0.1830  0.2091
 5899TIP3    H118126   2.562   5.914   5.940 -0.2143  1.1964  1.0615
 5899TIP3    H218127   2.414   5.888   5.950 -0.0230 -0.4839 -0.3228
 5900TIP3   OH218128   2.523   4.761   3.236 -0.3239 -0.3674  0.3394
 5900TIP3    H118129   2.532   4.848   3.197 -1.0962 -0.2887  0.3165
 5900TIP3    H218130   2.495   4.705   3.164  2.4944 -1.1595 -0.1819
 5901TIP3   OH218131   2.992   3.120   4.638  0.3933 -0.2208  0.2634
 5901TIP3    H118132   2.933   3.194   4.649 -0.3455 -0.6154 -0.9716
 5901TIP3    H218133   3.058   3.132   4.706 -1.6442 -0.3118  2.3256
 5902TIP3   OH218134   2.145   3.865   5.316  0.6278  0.6626  0.5509
 5902TIP3    H118135   2.092   3.944   5.309  0.9458  0.8581  0.3376
 5902TIP3    H218136   2.151   3.832   5.226 -0.3006 -0.1297  0.7673
 5903TIP3   OH218137   4.804   5.451   4.875  0.1288  0.2796 -0.0484
 5903TIP3    H118138   4.835   5.375   4.924  0.9377  0.2803 -0.5557
 5903TIP3    H218139   4.832   5.436   4.785 -0.0189  1.0030 -0.2243
 5904TIP3   OH218140   4.532   3.113   4.397 -0.0003 -0.1408 -0.4620
 5904TIP3    H118141   4.505   3.024   4.374  1.1114 -0.3896 -0.8244
 5904TIP3    H218142   4.469   3.169   4.350 -1.6293 -0.7290  0.9511
 5905TIP3   OH218143   3.843   5.942   3.475  0.5821 -0.0850  0.0907
 5905TIP3    H118144   3.825   5.848   3.483  0.5029 -0.0126  0.8069
 5905TIP3    H218145   3.936   5.950   3.495  0.4321  0.0749  0.7255
 5906TIP3   OH218146   1.708   2.380   1.192  0.2791 -0.1326 -0.1765
 5906TIP3    H118147   1.734   2.444   1.258 -1.7188 -2.0487  2.5507
 5906TIP3    H218148   1.733   2.421   1.109  1.7412  2.8689  1.6392
 5907TIP3   OH218149   3.487   4.403   5.191 -0.3808  0.4227 -0.8080
 5907TIP3    H118150   3.405   4.353   5.198 -0.1889 -0.0207 -1.7225
 5907TIP3    H218151   3.491   4.452   5.274 -1.4593  0.2905 -0.6599
 5908TIP3   OH218152   1.973   5.943   5.140 -0.2221 -0.1013  0.5404
 5908TIP3    H118153   2.041   5.877   5.123 -1.3628 -1.3991  0.9080
 5908TIP3    H218154   1.953   5.980   5.054 -0.8962 -1.5763  0.0424
 5909TIP3   OH218155   1.652   4.242   1.494 -1.0986 -0.5294  0.0134
 5909TIP3    H118156   1.569   4.215   1.455 -0.1499 -2.5021 -0.7014
 5909TIP3    H218157   1.714   4.242   1.420 -0.4513  0.9200  0.5345
 5910TIP3   OH218158   1.022   4.892   5.227 -0.1103 -0.1810  0.5652
 5910TIP3    H118159   1.031   4.917   5.319  0.7279 -1.4340  0.8377
 5910TIP3    H218160   1.060   4.804   5.222  1.2232  0.4491 -1.2632
 5911TIP3   OH218161   3.078   4.824   0.058  0.4173 -0.4085 -0.2761
 5911TIP3    H118162   3.076   4.741   0.010  0.1397  0.3090 -1.5186
 5911TIP3    H218163   3.159   4.819   0.110  1.9377 -0.2236 -2.5672
 5912TIP3   OH218164   4.373   4.794   5.739 -0.0868  0.6972  0.3064
 5912TIP3    H118165   4.415   4.863   5.687  0.8171  1.2314  1.6991
 5912TIP3    H218166   4.288   4.830   5.762  0.0789  1.0429  0.3832
 5913TIP3   OH218167   3.983   3.410   4.161  0.0321  0.3900  0.3032
 5913TIP3    H118168   4.036   3.441   4.088  0.0472 -1.7568 -0.6487
 5913TIP3    H218169   3.894   3.438   4.140  0.2371  0.8941  0.1070
 5914TIP3   OH218170   2.854   3.520   2.984  0.1192  0.7211  1.4091
 5914TIP3    H118171   2.795   3.480   2.920  1.3933 -2.3308  2.0270
 5914TIP3    H218172   2.796   3.567   3.043 -1.2001  2.3872 -1.1154
 5915TIP3   OH218173   5.737   5.192   2.794 -0.4945 -0.3106  0.0301
 5915TIP3    H118174   5.792   5.248   2.850 -0.2301 -1.6459  1.1466
 5915TIP3    H218175   5.648   5.209   2.823 -0.3176 -1.3743  1.2178
 5916TIP3   OH218176   5.241   5.909   0.965  0.0120  0.4048 -0.3262
 5916TIP3    H118177   5.323   5.901   1.014 -0.6201 -1.3195  0.4916
 5916TIP3    H218178   5.179   5.947   1.028 -0.8907 -2.1151  0.3993
 5917TIP3   OH218179   5.138   3.591   4.058  0.9896 -0.1244  0.5726
 5917TIP3    H118180   5.122   3.544   3.976 -0.9107  1.2743  0.0899
 5917TIP3    H218181   5.130   3.524   4.126 -0.5324 -0.7377 -0.1833
 5918TIP3   OH218182   2.119   4.373   4.118 -0.2623  0.1618  0.0681
 5918TIP3    H118183   2.048   4.437   4.115  1.0749  1.7526  1.5019
 5918TIP3    H218184   2.107   4.328   4.202  0.2520  0.2497  0.1922
 5919TIP3   OH218185   1.912   5.870   4.386  0.0852 -0.6517  0.1073
 5919TIP3    H118186   1.884   5.946   4.437  2.4726  0.3346  0.0086
 5919TIP3    H218187   1.906   5.898   4.295  2.1363 -0.1345  0.1130
 5920TIP3   OH218188   4.572   5.417   2.362 -0.2724 -0.0976  0.3885
 5920TIP3    H118189   4.490   5.443   2.319 -0.6309  0.2209  1.2538
 5920TIP3    H218190   4.638   5.478   2.327 -0.6994  0.6225  0.8174
 5921TIP3   OH218191   5.652   4.883   4.837 -0.0763  0.2692 -0.1422
 5921TIP3    H118192   5.572   4.918   4.876 -1.2894 -2.5111 -0.0068
 5921TIP3    H218193   5.621   4.824   4.768  1.9239  0.7645 -1.4959
 5922TIP3   OH218194   4.118   5.436   5.114 -0.0549  0.1190  0.3484
 5922TIP3    H118195   4.039   5.398   5.075  1.4464 -0.9635 -1.7777
 5922TIP3    H218196   4.150   5.368   5.174 -1.1236  0.8593  1.7731
 5923TIP3   OH218197   3.769   5.494   4.159 -0.3282 -0.3733 -0.0792
 5923TIP3    H118198   3.842   5.463   4.106 -1.4397 -0.0074 -1.8530
 5923TIP3    H218199   3.808   5.558   4.219  0.9746 -0.9794 -0.2652
 5924TIP3   OH218200   2.878   4.479   4.350  0.0703  0.4469 -0.5957
 5924TIP3    H118201   2.862   4.573   4.342  0.9297  0.6261 -0.2672
 5924TIP3    H218202   2.915   4.454   4.266 -0.5311  0.3214 -0.8250
 5925TIP3   OH218203   5.385   3.502   5.528  0.4680 -0.2926 -0.1795
 5925TIP3    H118204   5.434   3.428   5.493  0.5133  0.5838 -2.0158
 5925TIP3    H218205   5.447   3.546   5.587  0.5098 -1.5547  0.7438
 5926TIP3   OH218206   0.249   4.878   4.587  0.3111 -0.4081 -0.3980
 5926TIP3    H118207   0.301   4.951   4.554  1.3107 -0.9076  0.0526
 5926TIP3    H218208   0.169   4.880   4.535  0.7079  0.4818 -0.9751
 5927TIP3   OH218209   4.876   4.597   1.513  0.1754 -0.3283  0.0161
 5927TIP3    H118210   4.805   4.535   1.495 -0.5448  0.0519  1.4581
 5927TIP3    H218211   4.900   4.579   1.604  1.4235  0.0541 -0.2318
 5928TIP3   OH218212   2.946   4.777   3.009  0.2943  0.0108 -0.1181
 5928TIP3    H118213   3.008   4.849   3.000  2.7057 -1.9692  0.3109
 5928TIP3    H218214   2.930   4.747   2.920  0.1873  0.3159 -0.2023
 5929TIP3   OH218215   1.872   3.647   4.654  0.7099 -0.0227 -0.1871
 5929TIP3    H118216   1.780   3.672   4.644  0.6852 -0.2160 -0.4749
 5929TIP3    H218217   1.918   3.694   4.584  0.9821  0.8189  0.5469
 5930TIP3   OH218218   2.789   5.166   0.326  0.1373 -0.0209 -0.0010
 5930TIP3    H118219   2.796   5.203   0.414 -0.7035  0.7366 -0.2586
 5930TIP3    H218220   2.809   5.238   0.267  1.0836 -0.6187 -0.4362
 5931TIP3   OH218221   3.460   4.731   5.256  0.3751 -0.1676 -0.2507
 5931TIP3    H118222   3.464   4.693   5.168 -2.1128 -1.9116  0.3420
 5931TIP3    H218223   3.528   4.685   5.305  0.6403 -0.3890 -0.8229
 5932TIP3   OH218224   5.715   5.335   3.751 -0.0412 -0.6588 -0.0515
 5932TIP3    H118225   5.659   5.331   3.673  2.5044  0.2401 -1.9772
 5932TIP3    H218226   5.748   5.246   3.761 -1.3326 -1.0699  0.7885
 5933TIP3   OH218227   5.579   5.076   5.295  0.7598 -0.8894 -0.1655
 5933TIP3    H118228   5.524   5.096   5.218 -1.3078  3.9562  2.3379
 5933TIP3    H218229   5.530   5.008   5.342 -0.5735 -0.2352 -0.5727
 5934TIP3   OH218230   3.825   5.133   4.923 -0.8862  0.6532 -0.6291
 5934TIP3    H118231   3.787   5.068   4.982 -0.6334  0.8525 -0.2482
 5934TIP3    H218232   3.777   5.121   4.840 -0.8790  0.0214 -0.5440
 5935TIP3   OH218233   5.845   5.318   5.123 -0.1042  0.6735 -0.2226
 5935TIP3    H118234   5.820   5.276   5.040 -2.7635 -0.3276  1.0180
 5935TIP3    H218235   5.906   5.256   5.163 -1.9821 -0.8553  0.3892
 5936TIP3   OH218236   2.758   5.519   1.148 -0.3591  0.3238 -0.0830
 5936TIP3    H118237   2.778   5.607   1.116 -2.7149  0.5316 -1.0948
 5936TIP3    H218238   2.720   5.534   1.235 -0.7885  0.3147 -0.2680
 5937TIP3   OH218239   3.073   5.207   0.949 -0.0223 -0.1204  0.1368
 5937TIP3    H118240   3.000   5.239   1.001  0.6594 -0.1314  1.1064
 5937TIP3    H218241   3.042   5.124   0.912 -0.4608 -0.1663  0.6084
 5938TIP3   OH218242   1.153   4.643   5.147  0.0152 -0.1969 -0.4958
 5938TIP3    H118243   1.125   4.603   5.064 -0.1973 -0.6881 -0.1930
 5938TIP3    H218244   1.247   4.654   5.138 -0.1726  0.9205 -1.2972
 5939TIP3   OH218245   3.091   5.111   4.778  0.4985  0.1246 -0.1396
 5939TIP3    H118246   3.131   5.069   4.854  0.1363  2.3726  1.3322
 5939TIP3    H218247   3.097   5.205   4.796 -2.0453  0.6163 -1.6132
 5940TIP3   OH218248   4.467   0.212   3.486 -0.3395 -0.4902 -0.3680
 5940TIP3    H118249   4.544   0.206   3.543 -0.7946  1.3658  0.4890
 5940TIP3    H218250   4.498   0.180   3.401  1.5630  0.7314 -0.1892
 5941TIP3   OH218251   0.950   5.636   5.010 -0.6653  0.1650  0.0856
 5941TIP3    H118252   1.010   5.588   4.954 -0.3414  0.6760 -0.0105
 5941TIP3    H218253   0.988   5.629   5.098 -0.8283 -0.0859  0.1372
 5942TIP3   OH218254   3.356   2.160   1.536 -0.0236 -0.1406 -0.4579
 5942TIP3    H118255   3.375   2.069   1.514  1.8765  0.1764 -0.2441
 5942TIP3    H218256   3.430   2.187   1.592 -0.3002  1.6735 -0.9330
 5943TIP3   OH218257   4.401   3.493   5.271  0.0288  0.1432  0.0181
 5943TIP3    H118258   4.441   3.490   5.184 -1.1241  1.0629 -0.5543
 5943TIP3    H218259   4.440   3.570   5.313 -0.0954  0.2317 -0.0273
 5944TIP3   OH218260   3.649   3.952   4.648 -0.0285 -0.0310 -0.2658
 5944TIP3    H118261   3.715   3.883   4.647  0.8323  0.7881 -1.5605
 5944TIP3    H218262   3.675   4.009   4.721  0.0818 -0.2824 -0.1085
 5945TIP3   OH218263   3.803   5.843   3.992  0.1761  0.1828  0.3461
 5945TIP3    H118264   3.826   5.859   4.083  0.9520  0.3459  0.1239
 5945TIP3    H218265   3.831   5.923   3.946 -2.7668  1.3039  0.3993
 5946TIP3   OH218266   2.111   5.659   0.538 -0.2185 -0.2800 -0.3487
 5946TIP3    H118267   2.170   5.595   0.578 -0.3041  0.5232  1.0909
 5946TIP3    H218268   2.028   5.649   0.585 -0.7446 -0.2651 -1.2554
 5947TIP3   OH218269   2.125   3.208   1.827 -0.6224  0.4417  0.3053
 5947TIP3    H118270   2.213   3.240   1.809 -0.7869  1.4216  1.2033
 5947TIP3    H218271   2.069   3.285   1.818 -1.1712  0.1686  1.3859
 5948TIP3   OH218272   5.082   4.643   3.612  0.1118 -0.1747 -0.0443
 5948TIP3    H118273   5.056   4.701   3.540  0.0960  0.9065  0.8313
 5948TIP3    H218274   5.023   4.665   3.683  1.3066  0.0499  0.8994
 5949TIP3   OH218275   1.965   4.403   5.335 -0.1847  0.2683  0.1075
 5949TIP3    H118276   1.873   4.374   5.334 -0.7388  2.0082 -0.1025
 5949TIP3    H218277   1.979   4.438   5.247  0.7469 -0.1734  0.0802
 5950TIP3   OH218278   1.848   3.519   2.976 -0.2166  0.4875 -0.0499
 5950TIP3    H118279   1.779   3.559   3.030 -0.4478  0.3506 -0.2445
 5950TIP3    H218280   1.908   3.591   2.958 -1.4686  1.1442 -1.7562
 5951TIP3   OH218281   1.595   2.614   1.545 -0.2273  0.4086  0.0360
 5951TIP3    H118282   1.653   2.609   1.621 -2.5835  0.7797  1.9165
 5951TIP3    H218283   1.572   2.707   1.539  0.4943  0.5035 -1.5964
 5952TIP3   OH218284   2.032   2.736   5.939  0.2158 -0.0330  0.0078
 5952TIP3    H118285   2.049   2.814   5.886  0.5211 -0.5607 -0.6752
 5952TIP3    H218286   1.938   2.723   5.934  0.3638 -0.7304 -1.3450
 5953TIP3   OH218287   1.992   3.420   0.424  0.4087  0.3935  0.6559
 5953TIP3    H118288   2.000   3.340   0.476  2.3793 -0.1779 -0.4834
 5953TIP3    H218289   1.990   3.390   0.333  2.2806  1.6636  0.1589
 5954TIP3   OH218290   2.171   4.261   4.989  0.0534 -0.1825  0.6090
 5954TIP3    H118291   2.177   4.350   4.955 -1.4600 -0.5488 -0.6853
 5954TIP3    H218292   2.260   4.226   4.979 -0.0129  0.1919 -1.7253
 5955TIP3   OH218293   1.840   4.540   5.707  0.2633 -0.4008  0.2790
 5955TIP3    H118294   1.917   4.514   5.656 -1.8569 -0.9907 -2.8017
 5955TIP3    H218295   1.816   4.627   5.672  0.5054  0.5259  2.3751
 5956TIP3   OH218296   3.221   1.607   4.283  0.5102  0.0940 -0.9863
 5956TIP3    H118297   3.158   1.652   4.227 -0.0446  2.0889  1.1518
 5956TIP3    H218298   3.169   1.542   4.330  0.5238  0.0798 -0.9904
 5957TIP3   OH218299   3.352   3.543   3.452 -0.4704 -0.1379  0.0617
 5957TIP3    H118300   3.327   3.582   3.536  1.5912  0.2282  0.5279
 5957TIP3    H218301   3.396   3.613   3.404 -0.1593 -0.8052 -0.6501
 5958TIP3   OH218302   3.211   4.561   3.497  0.6700  0.1524 -0.1374
 5958TIP3    H118303   3.236   4.653   3.487  1.0355 -0.0369 -1.0197
 5958TIP3    H218304   3.267   4.529   3.569  1.2346  0.3688 -0.4741
 5959TIP3   OH218305   2.795   4.084   4.034 -0.0540 -0.3341  0.0950
 5959TIP3    H118306   2.850   4.107   4.109  0.2171  0.3284 -0.3001
 5959TIP3    H218307   2.852   4.097   3.958 -1.5777  3.2140 -0.5460
 5960TIP3   OH218308   2.667   1.064   2.032 -0.3704 -0.2215 -0.3272
 5960TIP3    H118309   2.721   1.135   2.065 -0.2166 -1.0895  1.3555
 5960TIP3    H218310   2.587   1.067   2.086 -0.0975 -1.6889  0.1832
 5961TIP3   OH218311   2.774   3.025   4.257  0.1708  0.0356 -0.1047
 5961TIP3    H118312   2.755   3.102   4.202  0.4187  0.3119  0.1933
 5961TIP3    H218313   2.698   2.968   4.245 -0.1348  0.4418 -0.1379
 5962TIP3   OH218314   2.645   5.502   4.374  0.1809  0.3710 -0.1591
 5962TIP3    H118315   2.590   5.572   4.410 -0.5707 -0.4769  0.3566
 5962TIP3    H218316   2.675   5.453   4.451 -0.5418 -0.7920 -0.6106
 5963TIP3   OH218317   2.507   6.036   4.738  0.2354 -0.0755  0.6091
 5963TIP3    H118318   2.558   6.019   4.816  0.8494 -1.8023 -0.1447
 5963TIP3    H218319   2.521   6.129   4.719  0.2824  0.2882  2.3789
 5964TIP3   OH218320   3.153   0.192   1.389 -0.4930  0.5717 -0.4616
 5964TIP3    H118321   3.164   0.159   1.300 -0.3917  1.6401 -0.8555
 5964TIP3    H218322   3.107   0.275   1.378 -1.4695  0.1754  0.5685
 5965TIP3   OH218323   2.556   1.022   5.657 -0.3398 -0.6759  0.2317
 5965TIP3    H118324   2.625   1.087   5.666 -0.2129 -0.5932 -1.2231
 5965TIP3    H218325   2.594   0.941   5.692  1.3945 -1.2136 -2.6991
 5966TIP3   OH218326   3.899   5.674   4.938  0.6414 -0.3956 -0.3408
 5966TIP3    H118327   3.988   5.639   4.925 -0.1932 -2.1986 -1.4008
 5966TIP3    H218328   3.893   5.748   4.876  1.7068  0.3309  0.4044
 5967TIP3   OH218329   2.938   4.754   4.383 -0.0550  0.1891 -0.1397
 5967TIP3    H118330   3.028   4.722   4.389 -0.2272 -0.2215  0.2339
 5967TIP3    H218331   2.920   4.756   4.289 -0.7390 -2.7566 -0.1210
 5968TIP3   OH218332   3.037   3.693   4.879 -0.2462 -0.5982 -0.1809
 5968TIP3    H118333   2.945   3.697   4.905 -0.8597  0.6276 -2.4073
 5968TIP3    H218334   3.035   3.695   4.784  2.1226  0.2125 -0.2460
 5969TIP3   OH218335   0.718   5.193   2.668 -0.2551 -0.4499  1.0602
 5969TIP3    H118336   0.735   5.197   2.574 -1.9333 -0.7912  0.7321
 5969TIP3    H218337   0.739   5.281   2.699 -0.1688 -0.1918  0.2876
 5970TIP3   OH218338   3.277   5.362   4.707  0.4305  0.4728  0.5899
 5970TIP3    H118339   3.310   5.451   4.695  0.9886  0.2370  0.3487
 5970TIP3    H218340   3.259   5.356   4.801  0.3814  0.8431  0.6048
 5971TIP3   OH218341   2.200   3.861   6.078 -0.4839  0.2836  0.0536
 5971TIP3    H118342   2.278   3.898   6.037 -1.1810  1.1523 -0.5232
 5971TIP3    H218343   2.221   3.856   6.171  0.6705 -0.5553 -0.2368
 5972TIP3   OH218344   2.791   4.207   2.076  0.0106 -0.2789  0.0978
 5972TIP3    H118345   2.886   4.200   2.080 -0.0445 -0.5208  1.1449
 5972TIP3    H218346   2.768   4.272   2.143 -0.5661 -0.2977 -0.0730
 5973TIP3   OH218347   3.241   3.906   2.551  0.0507  0.0532 -0.2409
 5973TIP3    H118348   3.283   3.960   2.485  1.0752  1.4212  1.4840
 5973TIP3    H218349   3.314   3.863   2.597 -0.7067 -2.1409 -1.0312
 5974TIP3   OH218350   2.576   3.879   5.614  0.0350 -0.3169 -0.3839
 5974TIP3    H118351   2.592   3.789   5.586 -2.5200 -1.4639  1.6250
 5974TIP3    H218352   2.492   3.902   5.574 -0.3886  0.3708  0.8601
 5975TIP3   OH218353   3.655   4.110   3.298 -0.1856  0.1969  0.3499
 5975TIP3    H118354   3.636   4.173   3.228  1.2815  1.0242  0.6651
 5975TIP3    H218355   3.750   4.100   3.296 -0.3299 -1.4840  0.7785
 5976TIP3   OH218356   0.925   3.408   4.319 -0.5169 -0.0715  0.2347
 5976TIP3    H118357   0.862   3.475   4.346 -0.6181 -0.1673  0.2368
 5976TIP3    H218358   0.871   3.335   4.287 -0.3941  0.0339 -0.2072
 5977TIP3   OH218359   1.872   4.366   0.404 -0.0759  0.2327  0.1172
 5977TIP3    H118360   1.885   4.271   0.400 -1.0083 -0.0054  2.4173
 5977TIP3    H218361   1.778   4.378   0.414  0.1012  1.3796  0.5292
 5978TIP3   OH218362   2.865   5.512   0.501  0.6007 -0.2329 -0.1080
 5978TIP3    H118363   2.949   5.550   0.528  0.7091  0.3761 -1.2935
 5978TIP3    H218364   2.863   5.427   0.544  0.9545  0.5519  1.4932
 5979TIP3   OH218365   2.952   2.763   2.875 -0.0521  0.3379  0.7503
 5979TIP3    H118366   2.986   2.829   2.816  1.7877 -2.8766 -1.9275
 5979TIP3    H218367   3.029   2.716   2.907 -1.3774 -1.4340  1.4686
 5980TIP3   OH218368   2.921   5.615   4.989 -0.3324 -0.6619  0.0135
 5980TIP3    H118369   3.005   5.642   4.952 -0.2097 -0.7242  0.2468
 5980TIP3    H218370   2.943   5.581   5.076 -0.6197 -0.5116  0.1458
 5981TIP3   OH218371   4.176   4.443   1.979 -0.1031  0.6232 -0.4448
 5981TIP3    H118372   4.231   4.405   1.911  1.7281  1.2924  0.6162
 5981TIP3    H218373   4.201   4.535   1.983 -2.2750  1.2757 -0.8350
 5982TIP3   OH218374   4.877   4.208   1.008 -0.4702 -0.7307  0.2030
 5982TIP3    H118375   4.893   4.300   0.988 -3.0157 -0.2987  0.1111
 5982TIP3    H218376   4.911   4.162   0.931  3.2644 -0.1449  1.3582
 5983TIP3   OH218377   2.973   6.078   5.980  0.6956  0.3365  0.6767
 5983TIP3    H118378   2.916   6.136   6.030 -0.6173 -0.8673  0.5782
 5983TIP3    H218379   3.055   6.078   6.029  0.0912  0.7878  1.7034
 5984TIP3   OH218380   2.547   5.387   0.138  0.2398  0.1976  0.1012
 5984TIP3    H118381   2.573   5.306   0.183 -0.3628  1.2339  2.3600
 5984TIP3    H218382   2.614   5.399   0.071  1.5454 -1.0313  1.1432
 5985TIP3   OH218383   2.618   3.028   5.745  0.0437  0.0782  0.0772
 5985TIP3    H118384   2.682   3.003   5.811 -0.8300 -0.6514  0.6644
 5985TIP3    H218385   2.554   2.957   5.746 -0.2864  0.3461 -1.1431
 5986TIP3   OH218386   4.248   5.266   0.479  0.1572 -0.1892  0.5000
 5986TIP3    H118387   4.265   5.359   0.465  1.6718 -0.3750  1.0081
 5986TIP3    H218388   4.306   5.221   0.418 -0.5987 -0.7980  0.2284
 5987TIP3   OH218389   5.985   1.476   4.295 -0.1630  0.1717 -0.0867
 5987TIP3    H118390   6.063   1.495   4.347 -0.4026 -0.7309  0.6153
 5987TIP3    H218391   5.933   1.556   4.299  0.0413  0.2690  0.6705
 5988TIP3   OH218392   0.960   3.959   4.140 -0.7975  0.8654  0.0531
 5988TIP3    H118393   0.988   3.996   4.224  0.2401 -0.9870  0.5415
 5988TIP3    H218394   0.917   3.877   4.163 -1.3849  0.8196 -1.1661
 5989TIP3   OH218395   4.135   6.002   1.653  0.1184  0.1215  0.0170
 5989TIP3    H118396   4.049   6.014   1.612 -0.5234  0.9479  1.5649
 5989TIP3    H218397   4.158   5.911   1.634 -1.6429 -0.4578  0.5987
 5990TIP3   OH218398   4.014   1.034   5.525 -0.3770  0.1522  0.0030
 5990TIP3    H118399   4.010   1.101   5.594  3.1394  0.2642  0.2215
 5990TIP3    H218400   3.923   1.019   5.500 -1.4828  2.5248  2.3571
 5991TIP3   OH218401   3.757   4.676   4.462  0.6197  0.1562  0.3516
 5991TIP3    H118402   3.673   4.630   4.459  0.6771 -0.1767  2.9477
 5991TIP3    H218403   3.812   4.629   4.399 -0.4698 -1.0437  0.2686
 5992TIP3   OH218404   3.227   2.115   5.778  0.3046  0.2545 -0.5493
 5992TIP3    H118405   3.289   2.127   5.706  2.2615  0.5341  1.1475
 5992TIP3    H218406   3.223   2.020   5.791  1.1005  0.2796 -0.0711
 5993TIP3   OH218407   3.566   0.984   4.206  0.4845  0.4160  0.2705
 5993TIP3    H118408   3.552   1.072   4.241  0.1487  0.5708 -0.2564
 5993TIP3    H218409   3.539   0.926   4.278 -2.5437  0.7066 -0.5595
 5994TIP3   OH218410   1.374   5.863   4.523 -0.0006  0.2113 -0.2832
 5994TIP3    H118411   1.408   5.943   4.563 -0.3441  0.8008 -1.1736
 5994TIP3    H218412   1.401   5.869   4.432  0.3443 -0.8999 -0.2655
 5995TIP3   OH218413   2.597   0.739   3.556  0.1801 -0.1947 -0.3078
 5995TIP3    H118414   2.598   0.721   3.462  0.2312 -1.4361 -0.0852
 5995TIP3    H218415   2.512   0.779   3.573  0.1436 -0.0348 -0.8767
 5996TIP3   OH218416   2.186   5.177   3.321 -0.0652  0.8822  0.4501
 5996TIP3    H118417   2.118   5.230   3.280 -0.8817  1.2284  2.2049
 5996TIP3    H218418   2.157   5.166   3.412 -0.8722 -4.1287 -0.2668
 5997TIP3   OH218419   2.731   2.445   5.246  0.2087  0.1995  0.1293
 5997TIP3    H118420   2.825   2.457   5.258  0.6865 -0.9930 -2.2312
 5997TIP3    H218421   2.693   2.531   5.267  1.9561  1.0984 -0.3011
 5998TIP3   OH218422   1.450   3.992   5.875  0.4186 -0.0346  0.1636
 5998TIP3    H118423   1.478   3.911   5.832 -1.2813 -1.3116  1.3898
 5998TIP3    H218424   1.395   3.963   5.948 -3.1273  2.2813 -1.4275
 5999TIP3   OH218425   2.267   1.544   3.666 -0.3702 -0.0167  0.0717
 5999TIP3    H118426   2.203   1.563   3.598 -0.1259  0.1330 -0.1185
 5999TIP3    H218427   2.286   1.451   3.656 -0.8035 -0.1287  0.3388
 6000TIP3   OH218428   2.115   1.432   5.147 -0.1108  0.0937 -0.3392
 6000TIP3    H118429   2.101   1.338   5.150  3.8572 -0.6036 -0.8676
 6000TIP3    H218430   2.126   1.452   5.054  0.4886  0.8100 -0.1278
 6001TIP3   OH218431   3.223   2.723   3.424 -0.0159  0.4257 -0.1099
 6001TIP3    H118432   3.254   2.779   3.495  0.0283  0.1836  0.0623
 6001TIP3    H218433   3.242   2.773   3.344  0.3966  0.4792  0.0196
 6002TIP3   OH218434   0.301   4.988   3.941 -0.6854 -0.1146 -0.4041
 6002TIP3    H118435   0.347   4.998   4.024 -0.2298 -0.2338 -0.6433
 6002TIP3    H218436   0.224   4.934   3.963 -0.3742 -0.4513 -0.1296
 6003TIP3   OH218437   3.538   5.906   4.697  0.5520  0.7022 -0.0715
 6003TIP3    H118438   3.519   5.989   4.740  2.5844  0.3716  1.5293
 6003TIP3    H218439   3.551   5.929   4.605 -2.1550  1.6588 -0.2693
 6004TIP3   OH218440   3.263   5.007   2.267  0.5308  0.5643 -0.0474
 6004TIP3    H118441   3.357   4.991   2.255  0.4394 -1.0661  1.2111
 6004TIP3    H218442   3.240   4.954   2.344 -1.3410  1.2558 -0.1208
 6005TIP3   OH218443   1.672   3.176   3.825  0.1934 -0.1292  0.1346
 6005TIP3    H118444   1.607   3.106   3.824  0.6070 -0.5203 -0.0551
 6005TIP3    H218445   1.699   3.183   3.916 -0.1768  0.0936  0.2275
 6006TIP3   OH218446   3.823   5.654   0.896  0.5547  0.3036  0.2418
 6006TIP3    H118447   3.831   5.559   0.901  0.8176  0.3856  1.6051
 6006TIP3    H218448   3.908   5.687   0.925  0.1526  0.9630  0.6759
 6007TIP3   OH218449   3.875   0.345   3.306  0.5180 -0.0900 -0.2337
 6007TIP3    H118450   3.971   0.342   3.311  0.6582  0.0836 -2.2924
 6007TIP3    H218451   3.857   0.368   3.215 -1.4919 -0.1320  0.1377
 6008TIP3   OH218452   3.215   4.219   5.038  0.1899 -0.2561  0.1810
 6008TIP3    H118453   3.183   4.193   5.125  0.0685  1.8302  0.7980
 6008TIP3    H218454   3.141   4.204   4.980  0.0891 -1.1434  0.5169
 6009TIP3   OH218455   1.520   5.346   3.179 -0.4515  0.8026 -0.2391
 6009TIP3    H118456   1.609   5.314   3.190 -0.4369  1.0987  0.4861
 6009TIP3    H218457   1.466   5.266   3.177 -0.3906  0.7093  1.3283
 6010TIP3   OH218458   4.319   5.511   4.244 -0.0910  0.4298 -0.3320
 6010TIP3    H118459   4.396   5.487   4.296 -0.9794 -0.2908  0.6688
 6010TIP3    H218460   4.253   5.534   4.309 -1.4241 -1.1018 -1.1272
 6011TIP3   OH218461   3.157   5.040   5.811 -0.4378 -0.3322 -0.6145
 6011TIP3    H118462   3.159   4.949   5.783 -0.8259  0.3586 -2.9578
 6011TIP3    H218463   3.226   5.083   5.761  1.3320  0.2404  2.1679
 6012TIP3   OH218464   3.490   4.261   0.351 -0.0297 -0.1686 -0.7184
 6012TIP3    H118465   3.401   4.231   0.333  0.0513 -0.9830  0.2313
 6012TIP3    H218466   3.541   4.233   0.274 -0.0186 -2.1848  0.0098
 6013TIP3   OH218467   1.352   4.925   5.078 -0.1545 -0.0279 -0.5606
 6013TIP3    H118468   1.407   4.929   4.999 -0.0865  1.7923 -0.4400
 6013TIP3    H218469   1.320   4.835   5.080  3.1305 -1.2603 -0.4330
 6014TIP3   OH218470   0.751   1.796   5.335  0.0174  0.2970  0.4998
 6014TIP3    H118471   0.767   1.782   5.428  3.0580 -1.6476 -0.2181
 6014TIP3    H218472   0.740   1.708   5.299 -1.0069  1.0211 -0.9935
 6015TIP3   OH218473   4.327   0.624   3.292 -0.4309  0.2187 -0.7096
 6015TIP3    H118474   4.314   0.593   3.382 -0.8091  2.0994 -0.1016
 6015TIP3    H218475   4.297   0.551   3.238 -1.0339 -0.5997  0.6855
 6016TIP3   OH218476   2.797   5.323   4.589 -0.0946  0.2449  0.1233
 6016TIP3    H118477   2.830   5.285   4.670  0.1060  1.7565  0.7825
 6016TIP3    H218478   2.872   5.319   4.528 -0.1942 -0.7356  0.0629
 6017TIP3   OH218479   1.714   3.265   0.409  0.6428  0.1338 -0.1243
 6017TIP3    H118480   1.636   3.215   0.435 -0.7953  2.1296 -0.5081
 6017TIP3    H218481   1.786   3.221   0.454 -0.9369 -0.6391  1.7464
 6018TIP3   OH218482   3.199   2.530   0.467  0.0920 -0.0083 -0.0277
 6018TIP3    H118483   3.209   2.560   0.376  1.8087 -0.9174 -0.1594
 6018TIP3    H218484   3.115   2.485   0.469  0.7562 -1.3691 -1.5697
 6019TIP3   OH218485   1.204   4.864   1.434  0.1613  0.4392  0.0055
 6019TIP3    H118486   1.183   4.772   1.419  3.0477 -0.2096 -0.3872
 6019TIP3    H218487   1.233   4.897   1.348  2.0587  0.8544  0.7705
 6020TIP3   OH218488   2.983   4.363   0.020  0.2473  0.4951 -0.2882
 6020TIP3    H118489   2.944   4.306  -0.047 -0.0363  0.2473  0.0907
 6020TIP3    H218490   3.024   4.303   0.082  0.3542  0.7192 -0.1419
 6021TIP3   OH218491   2.637   5.883   3.959  0.2914 -0.5476  0.3725
 6021TIP3    H118492   2.710   5.944   3.974  0.0310 -0.3605  0.9049
 6021TIP3    H218493   2.647   5.817   4.028 -0.3011 -0.2745  0.7215
 6022TIP3   OH218494   4.187   3.543   4.002  0.1278  0.8437  0.3985
 6022TIP3    H118495   4.247   3.617   4.007  2.6791 -1.0580 -0.9370
 6022TIP3    H218496   4.181   3.523   3.909 -0.8852 -0.3863  0.7150
 6023TIP3   OH218497   1.983   4.252   3.739  0.2172  0.0554 -0.0253
 6023TIP3    H118498   1.928   4.253   3.818 -0.7262  0.2674 -0.6739
 6023TIP3    H218499   1.971   4.165   3.702  0.4492  0.0479 -0.0868
 6024TIP3   OH218500   1.093   2.253   4.717  0.1303 -0.3890  0.2458
 6024TIP3    H118501   1.171   2.200   4.737 -0.0865 -0.6892  0.3019
 6024TIP3    H218502   1.100   2.271   4.623  1.2128  1.1249  0.5902
 6025TIP3   OH218503   5.834   3.515   5.938 -0.3819  0.2098  0.1595
 6025TIP3    H118504   5.874   3.601   5.951 -1.3897  0.8932 -1.1544
 6025TIP3    H218505   5.875   3.482   5.858 -0.6657 -0.1380  0.1572
 6026TIP3   OH218506   2.328   4.672   2.247  0.5507  0.5882 -0.3302
 6026TIP3    H118507   2.325   4.755   2.200 -1.3516  1.3871  1.1416
 6026TIP3    H218508   2.251   4.624   2.215 -0.0050  0.6001  0.9660
 6027TIP3   OH218509   3.891   3.592   4.431 -0.1356 -0.0013 -0.4048
 6027TIP3    H118510   3.929   3.676   4.407  0.2396 -0.5585 -1.8124
 6027TIP3    H218511   3.964   3.530   4.425 -0.7268 -0.6712 -0.8425
 6028TIP3   OH218512   0.542   4.388   3.521 -0.7456 -0.0145  0.1370
 6028TIP3    H118513   0.461   4.383   3.572 -1.2578 -0.5553 -0.7095
 6028TIP3    H218514   0.519   4.440   3.444  0.6681  2.9312  1.6162
 6029TIP3   OH218515   3.138   4.187   5.329  0.0518  0.0972 -0.6157
 6029TIP3    H118516   3.076   4.257   5.308 -0.4639 -0.5212 -1.1761
 6029TIP3    H218517   3.209   4.231   5.377 -0.4687  0.9280 -0.5984
 6030TIP3   OH218518   3.210   3.185   1.627  0.6496  0.6625  0.5010
 6030TIP3    H118519   3.175   3.226   1.548  1.0077  1.3709  0.7102
 6030TIP3    H218520   3.277   3.245   1.658 -0.0594  0.7931  1.8117
 6031TIP3   OH218521   3.778   3.580   5.066  0.1543  0.0691 -0.3695
 6031TIP3    H118522   3.692   3.577   5.026  1.0290 -0.7150 -2.2748
 6031TIP3    H218523   3.781   3.501   5.121 -0.0353 -0.3576 -0.9655
 6032TIP3   OH218524   4.521   3.061   2.823 -0.5634  0.0397 -0.0619
 6032TIP3    H118525   4.495   3.135   2.878 -2.9301 -0.0198 -1.0361
 6032TIP3    H218526   4.468   2.988   2.854  0.8179 -0.9347  0.0354
 6033TIP3   OH218527   3.812   2.914   5.970  0.0980 -0.0776 -0.4949
 6033TIP3    H118528   3.789   2.966   6.047  1.7627  0.8290 -0.5792
 6033TIP3    H218529   3.858   2.975   5.913  1.4861 -1.4633 -0.9005
 6034TIP3   OH218530   4.588   4.550   5.468 -0.1286  0.2510 -0.6917
 6034TIP3    H118531   4.530   4.616   5.429 -2.4218 -1.3298 -0.0779
 6034TIP3    H218532   4.560   4.467   5.429  0.6537 -0.7492  0.8019
 6035TIP3   OH218533   3.778   4.261   1.297  0.2649  0.3605  0.0060
 6035TIP3    H118534   3.870   4.286   1.301  0.2235  0.7247 -0.9477
 6035TIP3    H218535   3.768   4.191   1.361  1.3909 -0.2494 -0.4778
 6036TIP3   OH218536   1.020   3.137   0.048 -0.2612 -0.3198  0.0084
 6036TIP3    H118537   0.991   3.051   0.017  1.2272 -1.1047  0.7208
 6036TIP3    H218538   0.940   3.189   0.053 -0.9611 -1.1433 -2.0217
 6037TIP3   OH218539   2.195   4.378   2.903 -0.0973  0.1916 -0.5862
 6037TIP3    H118540   2.148   4.306   2.945  0.0130  0.7606  0.5250
 6037TIP3    H218541   2.253   4.335   2.839  1.4620 -0.8726  1.4766
 6038TIP3   OH218542   4.205   3.249   3.997  0.3230  0.0381  0.0220
 6038TIP3    H118543   4.292   3.254   4.038  0.3196  1.5016 -0.1064
 6038TIP3    H218544   4.222   3.268   3.904  0.0279 -0.9662 -0.2392
 6039TIP3   OH218545   4.942   3.181   1.521 -0.4138 -0.1670 -0.7712
 6039TIP3    H118546   5.012   3.167   1.458 -0.4422 -0.1846 -0.7992
 6039TIP3    H218547   4.983   3.165   1.607 -0.2364  0.3983 -0.7470
 6040TIP3   OH218548   3.613   3.461   4.399  0.0077 -0.4869 -0.3650
 6040TIP3    H118549   3.678   3.395   4.378 -0.6428 -1.0379 -0.6476
 6040TIP3    H218550   3.656   3.518   4.463  0.1854 -1.8254  0.7260
 6041TIP3   OH218551   1.834   3.045   5.475  0.4407 -0.4998  0.0871
 6041TIP3    H118552   1.790   3.093   5.545  0.3517 -1.3695  0.6320
 6041TIP3    H218553   1.785   2.963   5.467  0.5121 -0.4546 -0.9250
 6042TIP3   OH218554   2.469   5.664   4.840 -0.4007 -0.0604 -0.5259
 6042TIP3    H118555   2.529   5.738   4.852  0.1499 -0.4521 -0.8116
 6042TIP3    H218556   2.444   5.639   4.929 -2.7245  2.1709 -0.4903
 6043TIP3   OH218557   1.184   2.226   0.343  0.1241  0.5315 -0.3726
 6043TIP3    H118558   1.185   2.130   0.342  1.6570  0.5023  1.0130
 6043TIP3    H218559   1.112   2.248   0.402 -0.2680  0.2422 -0.7358
 6044TIP3   OH218560   1.626   0.755   5.201  0.7423 -0.9558  0.0918
 6044TIP3    H118561   1.636   0.709   5.285 -1.7506 -1.0429  0.3936
 6044TIP3    H218562   1.643   0.847   5.222 -0.7232 -0.8463  0.9323
 6045TIP3   OH218563   1.931   0.940   0.052  0.6465 -0.4046 -0.1360
 6045TIP3    H118564   1.849   0.991   0.047 -1.9700 -4.4002 -0.0405
 6045TIP3    H218565   1.966   0.960   0.139 -1.4174 -0.2902  0.7088
 6046TIP3   OH218566   4.700   1.215   3.034 -0.4811 -0.3240  0.1919
 6046TIP3    H118567   4.696   1.120   3.030 -2.5521 -0.3298  1.6080
 6046TIP3    H218568   4.642   1.245   2.964  1.5333 -0.0557 -1.4103
 6047TIP3   OH218569   4.736   3.940   3.068  0.1962  0.6848  0.2910
 6047TIP3    H118570   4.650   3.938   3.027 -0.4507 -1.3535  1.6782
 6047TIP3    H218571   4.718   3.948   3.162  1.4914  0.0369  0.6067
 6048TIP3   OH218572   5.088   4.583   1.320 -0.3812  0.3402 -0.1462
 6048TIP3    H118573   5.061   4.635   1.244  2.2024  1.8009 -0.0974
 6048TIP3    H218574   5.020   4.601   1.386  0.1580  3.2754 -0.3156
 6049TIP3   OH218575   1.947   2.609   4.315 -0.2780  0.1719  0.7176
 6049TIP3    H118576   1.972   2.625   4.406 -0.3244  1.6118  0.4922
 6049TIP3    H218577   1.854   2.588   4.318  0.1337 -1.6691  1.1881
 6050TIP3   OH218578   2.559   0.821   4.050 -0.3826  0.5608  0.1840
 6050TIP3    H118579   2.634   0.845   3.996 -0.7446  0.6980 -0.2575
 6050TIP3    H218580   2.487   0.876   4.018 -0.5581  0.7694  0.9125
 6051TIP3   OH218581   4.245   5.430   4.700 -0.0773 -0.0706  0.0419
 6051TIP3    H118582   4.332   5.394   4.719 -0.6211 -0.7017  1.3804
 6051TIP3    H218583   4.191   5.354   4.680 -0.6872  0.1913  0.6736
 6052TIP3   OH218584   3.984   1.667   5.755  0.7106  0.7953 -0.3235
 6052TIP3    H118585   3.899   1.665   5.800  1.0543  1.6891  0.3877
 6052TIP3    H218586   3.994   1.758   5.728  1.9595  0.9452  0.6197
 6053TIP3   OH218587   2.996   2.761   1.922  1.0314  0.2141  0.4129
 6053TIP3    H118588   2.942   2.822   1.972 -0.7481 -0.2542 -0.8992
 6053TIP3    H218589   3.041   2.816   1.858  1.8291  0.5509  1.2508
 6054TIP3   OH218590   4.431   0.200   3.082 -0.1884  0.1714 -0.1676
 6054TIP3    H118591   4.392   0.253   3.151  0.5506  1.7476 -0.9559
 6054TIP3    H218592   4.360   0.142   3.054 -1.6270  2.1997 -0.7751
 6055TIP3   OH218593   4.695   5.039   2.351 -0.2240  0.6988  0.1415
 6055TIP3    H118594   4.728   5.127   2.369 -1.0891  0.9995  0.2843
 6055TIP3    H218595   4.641   5.018   2.428 -0.1078  0.0891  0.0546
 6056TIP3   OH218596   2.520   5.035   5.328 -0.7513 -0.2969  0.3223
 6056TIP3    H118597   2.528   5.100   5.258  1.1160 -2.0020 -1.0876
 6056TIP3    H218598   2.428   5.041   5.355 -0.6536  2.7814  0.1157
 6057TIP3   OH218599   5.111   0.087   2.819  0.3231  0.2192 -0.4598
 6057TIP3    H118600   5.179   0.141   2.858  1.0281 -0.2056 -1.0847
 6057TIP3    H218601   5.029   0.121   2.855  0.8985  0.4063  0.6888
 6058TIP3   OH218602   4.977   3.626   4.889 -0.0758 -0.0372 -0.1667
 6058TIP3    H118603   4.949   3.608   4.799  0.1720  0.4660 -0.3496
 6058TIP3    H218604   4.896   3.644   4.936 -0.4153 -2.6099  0.2594
 6059TIP3   OH218605   2.082   4.660   4.127 -0.1721 -0.1803 -0.0741
 6059TIP3    H118606   2.120   4.684   4.043 -1.0290 -1.0470 -0.7304
 6059TIP3    H218607   1.987   4.659   4.111 -0.3333 -0.4673  0.8641
 6060TIP3   OH218608   2.733   3.818   5.879 -0.1122 -0.0841 -0.8707
 6060TIP3    H118609   2.717   3.897   5.930 -1.1566  0.1225 -1.5167
 6060TIP3    H218610   2.717   3.844   5.788 -3.0523 -1.6883 -0.8728
 6061TIP3   OH218611   3.792   3.587   4.705 -0.0137  0.2017  0.0087
 6061TIP3    H118612   3.865   3.533   4.737 -0.7935 -0.6783  0.3249
 6061TIP3    H218613   3.812   3.601   4.612  0.0100 -0.9435 -0.1653
 6062TIP3   OH218614   2.548   3.333   2.589 -0.5136 -0.5109 -0.4997
 6062TIP3    H118615   2.463   3.296   2.611  0.5456 -3.2049 -0.7594
 6062TIP3    H218616   2.559   3.314   2.496  0.0735  0.4521 -0.6363
 6063TIP3   OH218617   6.054   5.667   0.356  0.1571 -0.7735 -0.0375
 6063TIP3    H118618   6.084   5.576   0.348  0.1310 -0.6470 -1.7382
 6063TIP3    H218619   6.128   5.720   0.325 -0.3719 -0.2795 -0.4584
 6064TIP3   OH218620   3.103   4.823   5.597  0.3685 -0.2420 -0.1295
 6064TIP3    H118621   3.023   4.769   5.598  0.2856 -0.1276 -0.4332
 6064TIP3    H218622   3.071   4.912   5.580  0.1473  0.5304  3.8244
 6065TIP3   OH218623   3.978   3.266   4.822  0.5812  0.0596 -0.3717
 6065TIP3    H118624   4.046   3.225   4.768  0.4461 -0.8952  0.1790
 6065TIP3    H218625   4.014   3.351   4.845  1.6160 -0.4565 -0.0480
 6066TIP3   OH218626   1.619   4.577   5.211 -0.2430 -0.4313 -0.1538
 6066TIP3    H118627   1.698   4.623   5.238  0.2839 -0.7786 -1.0878
 6066TIP3    H218628   1.621   4.495   5.259  1.5720 -1.8004 -2.4831
 6067TIP3   OH218629   4.441   6.007   1.302  0.0668 -0.0542 -0.1746
 6067TIP3    H118630   4.419   6.091   1.263 -1.1547 -0.5546 -0.5843
 6067TIP3    H218631   4.395   6.006   1.386  0.3682 -0.1593 -0.0116
 6068TIP3   OH218632   3.716   1.263   4.213 -0.5318 -0.1669 -0.2447
 6068TIP3    H118633   3.778   1.237   4.280  0.0639  3.1970  0.5721
 6068TIP3    H218634   3.770   1.295   4.141 -1.2267 -2.0613 -1.6832
 6069TIP3   OH218635   5.608   4.762   3.268  0.1615  0.3466 -1.0374
 6069TIP3    H118636   5.551   4.837   3.250  0.5447  0.5298 -1.5074
 6069TIP3    H218637   5.694   4.801   3.285  0.1304  0.0782 -0.2347
 6070TIP3   OH218638   3.137   4.285   0.855  0.2288 -0.1387 -0.7489
 6070TIP3    H118639   3.160   4.199   0.891 -0.8584 -0.1829 -0.1452
 6070TIP3    H218640   3.073   4.265   0.787 -1.2305  0.3039  0.4702
 6071TIP3   OH218641   3.445   4.931   4.398  0.8303 -0.0903  0.2554
 6071TIP3    H118642   3.496   5.011   4.404 -0.8070  1.3197 -3.3644
 6071TIP3    H218643   3.379   4.940   4.467  0.7876  1.6235  0.0161
 6072TIP3   OH218644   3.188   3.868   5.033  0.5278 -0.7479  0.0896
 6072TIP3    H118645   3.114   3.907   5.078  1.5310 -0.8353  1.8822
 6072TIP3    H218646   3.149   3.811   4.967 -0.9552  1.5056 -1.0259
 6073TIP3   OH218647   1.047   0.579   4.944 -0.0951 -0.0962 -0.1366
 6073TIP3    H118648   1.030   0.505   4.886  2.6027  0.2064 -1.3761
 6073TIP3    H218649   1.136   0.608   4.921  0.8092  0.4320  3.6563
 6074TIP3   OH218650   2.224   1.355   5.609  0.2018  0.5044 -0.1890
 6074TIP3    H118651   2.208   1.416   5.538  0.7658  1.3197  0.3797
 6074TIP3    H218652   2.259   1.277   5.567 -2.2961 -0.1681 -1.1413
 6075TIP3   OH218653   3.756   4.580   5.881  0.4413  0.1590 -0.2021
 6075TIP3    H118654   3.836   4.530   5.900 -0.1340 -0.9482 -0.6561
 6075TIP3    H218655   3.750   4.643   5.952  1.6908  0.2134 -0.1254
 6076TIP3   OH218656   3.747   5.307   5.885  0.0753  0.3869  0.7067
 6076TIP3    H118657   3.678   5.311   5.951 -0.2876  0.4445  0.3262
 6076TIP3    H218658   3.752   5.396   5.850 -2.5255 -0.5127 -2.1785
 6077TIP3   OH218659   3.511   4.234   3.797 -0.2586  0.4868 -0.3974
 6077TIP3    H118660   3.601   4.266   3.796 -0.2098  0.3397 -0.6750
 6077TIP3    H218661   3.518   4.145   3.833 -0.2860  0.4537 -0.4743
 6078TIP3   OH218662   2.870   0.039   0.180  0.0259  0.2949  1.2083
 6078TIP3    H118663   2.906   0.107   0.121 -0.2522 -0.9371 -0.4223
 6078TIP3    H218664   2.776   0.052   0.176  0.0101  0.2405  1.4296
 6079TIP3   OH218665   1.707   4.793   1.625  0.3547 -0.0692  0.2236
 6079TIP3    H118666   1.715   4.702   1.654  1.1303 -0.4702 -1.2205
 6079TIP3    H218667   1.686   4.786   1.532  1.0643  1.2464 -0.0347
 6080TIP3   OH218668   2.422   4.442   4.678  0.1911  0.1562  0.4122
 6080TIP3    H118669   2.413   4.350   4.699 -1.3942  0.7203  2.3525
 6080TIP3    H218670   2.511   4.450   4.642  0.2182 -2.1523 -0.0634
 6081TIP3   OH218671   2.356   3.158   5.267 -0.2617  0.2952 -0.8113
 6081TIP3    H118672   2.389   3.200   5.346  1.5376 -2.6450  0.0634
 6081TIP3    H218673   2.430   3.160   5.206 -0.6339 -0.2822 -1.2821
 6082TIP3   OH218674   2.672   1.397   0.803 -0.5622  0.6255 -0.0658
 6082TIP3    H118675   2.725   1.379   0.880 -1.1146  0.1578  0.2077
 6082TIP3    H218676   2.615   1.321   0.794  0.6953 -0.1251 -1.9505
 6083TIP3   OH218677   3.699   0.384   5.674 -0.2136  0.2527 -0.2891
 6083TIP3    H118678   3.678   0.475   5.698  1.8551  0.7514 -0.3046
 6083TIP3    H218679   3.762   0.356   5.740  0.8745 -0.4230 -1.6017
 6084TIP3   OH218680   2.185   1.181   4.721 -0.2202  0.0409 -0.1936
 6084TIP3    H118681   2.223   1.107   4.769 -0.2866 -1.1459 -1.9149
 6084TIP3    H218682   2.186   1.253   4.784  0.6573 -1.1843  1.2488
 6085TIP3   OH218683   4.502   5.075   5.267  0.1183 -0.2095 -0.4257
 6085TIP3    H118684   4.423   5.057   5.316  0.7145 -0.1361  0.5671
 6085TIP3    H218685   4.475   5.069   5.175 -0.4390 -2.8712 -0.1345
 6086TIP3   OH218686   1.873   3.340   4.323  0.3768 -0.2900 -0.5120
 6086TIP3    H118687   1.851   3.297   4.241  0.1642  0.3782 -0.8024
 6086TIP3    H218688   1.858   3.433   4.308 -0.0240 -0.1965  0.3979
 6087TIP3   OH218689   4.250   3.270   5.084 -0.3983 -0.5721 -0.0279
 6087TIP3    H118690   4.330   3.286   5.134 -0.4934  1.1979 -0.4171
 6087TIP3    H218691   4.279   3.222   5.006  0.6233  1.9099 -1.2396
 6088TIP3   OH218692   3.397   2.657   5.151 -0.4260 -0.2617  0.7621
 6088TIP3    H118693   3.488   2.629   5.145 -0.3636  0.2636 -1.2804
 6088TIP3    H218694   3.349   2.590   5.103 -1.1123 -0.4993  1.7728
 6089TIP3   OH218695   0.149   2.883   3.915 -0.0260  0.0886 -0.1327
 6089TIP3    H118696   0.135   2.972   3.883  0.6930  0.4403  0.5262
 6089TIP3    H218697   0.098   2.828   3.855  0.2455  0.8596 -1.0807
 6090TIP3   OH218698   3.318   5.274   3.213  0.1339  0.1011 -0.0347
 6090TIP3    H118699   3.314   5.289   3.307 -1.6783  0.9790 -0.2471
 6090TIP3    H218700   3.403   5.310   3.187  2.2743 -3.3311  1.7991
 6091TIP3   OH218701   3.986   1.840   4.111 -0.0566 -0.1092  0.0726
 6091TIP3    H118702   3.984   1.933   4.129  1.4012 -0.7687  3.9963
 6091TIP3    H218703   4.060   1.829   4.051  1.5688  0.9424  1.8239
 6092TIP3   OH218704   4.088   2.261   0.096 -0.0672 -0.0328  0.1761
 6092TIP3    H118705   4.063   2.173   0.070  1.5950 -0.6733  0.6817
 6092TIP3    H218706   4.020   2.318   0.058 -1.9395 -1.6334  1.0733
 6093TIP3   OH218707   4.233   3.884   4.616 -0.4656 -0.2126 -0.0411
 6093TIP3    H118708   4.253   3.976   4.629 -0.1794 -0.3857  0.7468
 6093TIP3    H218709   4.179   3.859   4.691  0.2320 -0.9179  0.2373
 6094TIP3   OH218710   1.904   1.367   4.903  0.3585  0.7488 -0.6684
 6094TIP3    H118711   1.911   1.290   4.847  1.2958  0.8209 -0.6528
 6094TIP3    H218712   1.947   1.437   4.853 -1.1088  1.4418 -0.9937
 6095TIP3   OH218713   6.081   3.663   4.825 -0.2245  0.1292 -0.0301
 6095TIP3    H118714   6.033   3.638   4.747 -1.6637 -0.0463  0.9015
 6095TIP3    H218715   6.086   3.759   4.820  1.1568  0.0116 -1.1759
 6096TIP3   OH218716   2.377   4.250   5.553  0.3865  0.2097  0.4904
 6096TIP3    H118717   2.367   4.316   5.485 -1.0720  0.3305  0.8153
 6096TIP3    H218718   2.290   4.213   5.564  1.4169 -2.6917 -0.5872
 6097TIP3   OH218719   3.000   5.469   3.450 -0.3107 -0.0212 -0.5347
 6097TIP3    H118720   2.944   5.460   3.372 -0.9105 -0.7728 -0.0281
 6097TIP3    H218721   2.953   5.532   3.505 -0.6935 -0.6948 -0.0845
 6098TIP3   OH218722   5.911   5.198   4.244  0.0193  0.1425 -0.6868
 6098TIP3    H118723   5.872   5.128   4.192  0.6104  0.3567 -1.4286
 6098TIP3    H218724   5.887   5.278   4.197 -0.4348  0.4185  0.0121
 6099TIP3   OH218725   2.261   5.351   0.129 -0.1160  0.3667 -0.5272
 6099TIP3    H118726   2.233   5.368   0.219 -0.7737 -0.7716 -0.4943
 6099TIP3    H218727   2.355   5.365   0.130 -0.1823  0.7759  0.2455
 6100TIP3   OH218728   2.252   2.937   1.671 -0.5125  0.5534 -0.2444
 6100TIP3    H118729   2.204   3.006   1.624  2.0859  0.5797 -3.0129
 6100TIP3    H218730   2.336   2.976   1.692 -0.3934 -0.5964  1.5239
 6101TIP3   OH218731   1.269   0.204   3.788 -0.2059  0.0687 -0.7216
 6101TIP3    H118732   1.282   0.224   3.881 -1.8713 -1.0708 -0.2190
 6101TIP3    H218733   1.321   0.126   3.772 -1.0354 -0.5560 -0.3895
 6102TIP3   OH218734   3.746   4.088   5.824 -0.1415 -0.3672 -0.2120
 6102TIP3    H118735   3.730   4.165   5.878  0.6791 -1.5879  1.8432
 6102TIP3    H218736   3.835   4.100   5.790 -0.3016 -0.0533 -0.5232
 6103TIP3   OH218737   1.987   0.035   1.820  0.4501 -0.4171  0.5406
 6103TIP3    H118738   2.050  -0.035   1.804 -0.4214 -0.9599 -0.5704
 6103TIP3    H218739   1.942   0.008   1.900  1.0019 -0.4668  0.8414
 6104TIP3   OH218740   6.011   5.097   5.203  0.5839 -0.0301 -0.1451
 6104TIP3    H118741   5.970   5.096   5.290  0.9089 -2.2085 -0.0014
 6104TIP3    H218742   6.094   5.143   5.217 -1.0610  3.1477 -0.1529
 6105TIP3   OH218743   5.752   4.618   5.880 -1.1318  0.6784  0.2728
 6105TIP3    H118744   5.658   4.614   5.898 -1.1712  0.1669 -0.0188
 6105TIP3    H218745   5.759   4.617   5.785 -0.8136  0.1418  0.2956
 6106TIP3   OH218746   4.619   4.265   3.352  0.0511 -0.5734  0.7850
 6106TIP3    H118747   4.700   4.312   3.374 -0.4051  0.9324 -0.6280
 6106TIP3    H218748   4.615   4.269   3.256 -2.4039  0.5924  0.8961
 6107TIP3   OH218749   5.523   0.121   0.303 -0.4754  0.5951 -0.2441
 6107TIP3    H118750   5.482   0.075   0.376  1.6752 -0.0695  0.5849
 6107TIP3    H218751   5.615   0.131   0.329 -0.0614  1.9492 -2.0823
 6108TIP3   OH218752   5.836   4.722   3.976  0.1057 -0.2879  0.1328
 6108TIP3    H118753   5.778   4.751   3.906 -1.0210 -0.6518  0.9080
 6108TIP3    H218754   5.901   4.667   3.932 -1.1410 -1.2902 -0.5146
 6109TIP3   OH218755   3.342   3.858   3.330 -0.5372  0.2749 -0.3531
 6109TIP3    H118756   3.405   3.796   3.292  1.1885  1.9426 -0.3077
 6109TIP3    H218757   3.314   3.912   3.256 -3.1867 -1.4616 -0.6793
 6110TIP3   OH218758   2.344   5.251   4.110  0.2894  0.6052  0.0944
 6110TIP3    H118759   2.301   5.289   4.187  0.0928  1.2457 -0.3240
 6110TIP3    H218760   2.437   5.269   4.124  0.1816  1.3963 -0.1823
 6111TIP3   OH218761   2.126   5.824   4.578  0.4585  0.0777 -0.0276
 6111TIP3    H118762   2.069   5.794   4.649  0.5957  0.4674  0.2489
 6111TIP3    H218763   2.067   5.839   4.504  0.5466 -2.1609 -0.5942
 6112TIP3   OH218764   5.728   5.324   3.295 -0.1678  0.0119  0.0999
 6112TIP3    H118765   5.783   5.303   3.370  0.7329 -0.3533 -0.6627
 6112TIP3    H218766   5.789   5.345   3.225 -1.0073  2.1338 -0.0481
 6113TIP3   OH218767   2.138   0.536   4.719 -0.1763 -0.4265 -0.4643
 6113TIP3    H118768   2.154   0.442   4.710  3.2935 -0.0192  0.6087
 6113TIP3    H218769   2.083   0.544   4.796  0.2743 -1.5299 -0.0174
 6114TIP3   OH218770   2.077   5.080   5.800  0.2129  0.1802  0.3093
 6114TIP3    H118771   2.143   5.121   5.856  0.6607  0.8389 -0.6697
 6114TIP3    H218772   1.995   5.121   5.826 -0.1550 -2.1934  3.0050
 6115TIP3   OH218773   3.241   0.170   3.464  0.1132  0.4478  0.0133
 6115TIP3    H118774   3.243   0.083   3.503 -0.8333  0.7127  0.6733
 6115TIP3    H218775   3.324   0.210   3.489  0.6701 -0.3539 -0.5215
 6116TIP3   OH218776   5.663   2.476   4.463 -0.0076  0.5502  0.4040
 6116TIP3    H118777   5.739   2.424   4.438 -0.7955 -0.4587  0.0528
 6116TIP3    H218778   5.650   2.458   4.556 -0.2358  0.1655  0.3002
 6117TIP3   OH218779   4.899   2.895   2.418  0.3263 -0.0738  0.5603
 6117TIP3    H118780   4.891   2.801   2.403 -0.2253  0.0681 -0.0280
 6117TIP3    H218781   4.873   2.936   2.336  3.6643  0.5205 -0.2977
 6118TIP3   OH218782   4.005   0.391   2.930  0.0516 -0.8692  0.1619
 6118TIP3    H118783   3.945   0.461   2.956 -0.2772 -0.6945 -1.0395
 6118TIP3    H218784   3.948   0.320   2.900  0.4114 -1.2830  0.4431
 6119TIP3   OH218785   5.003   4.375   5.311 -0.3065 -0.5156  0.3028
 6119TIP3    H118786   4.914   4.351   5.285 -0.8658 -1.9208  3.2774
 6119TIP3    H218787   4.991   4.438   5.382  1.0976 -0.3613  0.4139
 6120TIP3   OH218788   4.867   3.478   4.303 -0.2567 -0.4338 -0.2914
 6120TIP3    H118789   4.824   3.401   4.341  4.3459 -2.0924  1.9183
 6120TIP3    H218790   4.940   3.443   4.252  1.0868  2.4008 -0.4471
 6121TIP3   OH218791   5.669   4.243   0.455 -0.1800  0.2511  0.0974
 6121TIP3    H118792   5.615   4.303   0.507 -0.5376  0.6095 -0.6729
 6121TIP3    H218793   5.615   4.223   0.379 -0.4804 -1.8846  0.8419
 6122TIP3   OH218794   5.344   4.242   4.145 -0.9667  0.1229 -0.6782
 6122TIP3    H118795   5.438   4.233   4.131 -0.3837  2.3817  1.3197
 6122TIP3    H218796   5.314   4.296   4.072 -0.3401  1.0178 -0.2864
 6123TIP3   OH218797   1.985   4.732   0.664 -0.1754 -0.1420  0.1660
 6123TIP3    H118798   1.980   4.690   0.578 -0.9449 -0.7310  0.4895
 6123TIP3    H218799   1.966   4.824   0.646  1.0516 -0.0134 -0.4852
 6124TIP3   OH218800   3.054   4.190   2.082 -0.8399  0.3520  0.2187
 6124TIP3    H118801   3.133   4.185   2.028 -1.6655  0.1091 -0.9823
 6124TIP3    H218802   3.086   4.188   2.172  0.5485  0.6357 -0.2603
 6125TIP3   OH218803   5.622   3.913   1.395 -0.2865  0.1238 -0.1170
 6125TIP3    H118804   5.678   3.835   1.393  0.3421  0.4953  1.6599
 6125TIP3    H218805   5.612   3.932   1.488  0.8138  3.0300 -0.5346
 6126TIP3   OH218806   3.429   4.674   6.046 -0.1578  0.3159  0.1675
 6126TIP3    H118807   3.406   4.695   5.955  0.9373  2.5198  0.3589
 6126TIP3    H218808   3.366   4.724   6.098  0.4292  0.5787  0.6262
 6127TIP3   OH218809   0.310   4.589   4.562 -0.5987 -0.9436  0.0845
 6127TIP3    H118810   0.321   4.683   4.574  0.1126 -1.2004  1.6632
 6127TIP3    H218811   0.396   4.559   4.533 -0.3382 -1.3321  1.2272
 6128TIP3   OH218812   2.038   5.644   3.812  0.0768 -0.0212 -0.4747
 6128TIP3    H118813   1.993   5.600   3.885 -0.5641  1.2488 -0.0816
 6128TIP3    H218814   1.974   5.641   3.740  1.5105 -3.1936 -1.7223
 6129TIP3   OH218815   1.028   3.264   3.980 -0.0451 -0.2562  0.1091
 6129TIP3    H118816   1.084   3.316   4.038 -1.2505 -0.3453  1.3875
 6129TIP3    H218817   1.033   3.176   4.015 -2.0954 -0.0022  1.1260
 6130TIP3   OH218818   0.521   5.681   3.639  0.3603 -0.3344  0.4340
 6130TIP3    H118819   0.530   5.675   3.735 -0.8377  0.3760  0.6034
 6130TIP3    H218820   0.447   5.741   3.626  1.8933  1.3205 -0.9505
 6131TIP3   OH218821   0.396   2.870   4.824  0.2488  0.3404 -0.0993
 6131TIP3    H118822   0.410   2.779   4.799  0.3647  0.0702  0.9426
 6131TIP3    H218823   0.483   2.910   4.820  0.1219  0.5251 -1.0275
 6132TIP3   OH218824   3.996   5.237   0.621  0.1719  0.1332  0.1959
 6132TIP3    H118825   4.088   5.255   0.640  0.4686  0.5106 -1.4711
 6132TIP3    H218826   3.966   5.183   0.694  1.1195  1.7949  1.8525
 6133TIP3   OH218827   0.630   4.613   4.006  0.0629 -0.6194  0.1656
 6133TIP3    H118828   0.666   4.701   3.990 -0.2915 -0.9910 -2.9673
 6133TIP3    H218829   0.704   4.554   3.990 -0.6604 -1.1029 -1.4059
 6134TIP3   OH218830   5.266   3.999   2.439  0.6481  0.4977  0.5220
 6134TIP3    H118831   5.314   3.916   2.447  0.3107  0.3260  0.7557
 6134TIP3    H218832   5.327   4.057   2.393  0.8953  0.1277  0.3773
 6135TIP3   OH218833   4.040   3.505   0.866 -0.3428 -0.6213 -0.7960
 6135TIP3    H118834   3.955   3.544   0.847 -0.0127  0.1936 -0.6080
 6135TIP3    H218835   4.087   3.508   0.783  0.0722  0.3566 -0.5234
 6136TIP3   OH218836   0.661   3.815   0.325  0.5274 -0.0153 -0.0088
 6136TIP3    H118837   0.607   3.890   0.300 -0.8771 -1.3737 -1.1504
 6136TIP3    H218838   0.639   3.747   0.261  1.6181 -1.4765  1.1303
 6137TIP3   OH218839   0.165   4.258   5.744 -0.0804 -0.6384  0.4620
 6137TIP3    H118840   0.088   4.249   5.688 -1.0995 -4.2958  2.2915
 6137TIP3    H218841   0.234   4.290   5.686 -1.2976 -3.5222 -2.7462
 6138TIP3   OH218842   4.032   6.098   4.042  0.4510  0.4086 -0.2400
 6138TIP3    H118843   3.967   6.145   4.095  2.4655  1.3427  1.4475
 6138TIP3    H218844   3.989   6.087   3.957 -1.6461  1.6291  0.6131
 6139TIP3   OH218845   5.781   5.232   5.702 -0.4441 -0.2968 -0.1443
 6139TIP3    H118846   5.764   5.281   5.621  2.5703  2.1877  0.6430
 6139TIP3    H218847   5.748   5.288   5.772  4.9628  1.8307  0.9406
 6140TIP3   OH218848   0.107   3.501   4.489 -0.2923  0.0466 -0.5504
 6140TIP3    H118849   0.012   3.499   4.479 -0.3313  1.9130 -0.7888
 6140TIP3    H218850   0.128   3.423   4.540 -2.2505  0.9859  1.7593
 6141TIP3   OH218851   3.853   0.698   5.450  0.3577  0.1165 -0.1289
 6141TIP3    H118852   3.813   0.779   5.480  1.4056  0.3355  0.6886
 6141TIP3    H218853   3.903   0.666   5.525  0.5282 -0.9149 -0.6682
 6142TIP3   OH218854   5.966   4.708   0.123 -0.0435  0.3396  0.3781
 6142TIP3    H118855   6.031   4.775   0.144 -2.4299  2.7786  0.3468
 6142TIP3    H218856   5.950   4.719   0.029 -0.4835 -0.2557  0.3826
 6143TIP3   OH218857   4.835   5.710   3.370 -0.3246  0.0027 -0.0368
 6143TIP3    H118858   4.896   5.682   3.301 -0.3396  1.1822 -0.5427
 6143TIP3    H218859   4.876   5.682   3.452  0.4925  0.0611 -0.4247
 6144TIP3   OH218860   5.119   5.237   4.312 -0.2408  0.4558  0.1616
 6144TIP3    H118861   5.097   5.297   4.241 -1.2255 -0.3984 -0.2676
 6144TIP3    H218862   5.192   5.185   4.277 -0.4688  0.2979 -0.0862
 6145TIP3   OH218863   0.184   5.195   5.227 -0.2941  0.1030 -0.0359
 6145TIP3    H118864   0.159   5.284   5.254 -0.5899 -0.6000  2.0803
 6145TIP3    H218865   0.275   5.204   5.198 -0.4442  1.1679 -0.2218
 6146TIP3   OH218866   2.891   5.165   3.098 -0.4468  0.7332 -0.5747
 6146TIP3    H118867   2.949   5.239   3.076 -0.4740  1.9017  2.9232
 6146TIP3    H218868   2.809   5.207   3.126 -0.6300 -0.6210  0.9793
 6147TIP3   OH218869   5.604   4.426   1.885 -0.4056 -0.1819 -0.3018
 6147TIP3    H118870   5.539   4.408   1.817 -1.7136 -0.4526  0.9970
 6147TIP3    H218871   5.658   4.496   1.848  0.6270 -2.1599 -2.7181
 6148TIP3   OH218872   5.038   0.919   4.256  0.4352 -0.1203 -0.4262
 6148TIP3    H118873   5.112   0.865   4.283  0.3532  1.1279  2.4942
 6148TIP3    H218874   4.965   0.887   4.309 -0.4220  0.5548 -1.1983
 6149TIP3   OH218875   0.044   3.795   4.234  0.3713 -0.1200 -0.2985
 6149TIP3    H118876   0.074   3.843   4.311  2.7344  0.1778 -1.3772
 6149TIP3    H218877   0.039   3.860   4.165 -1.4541 -0.4476 -0.5127
 6150TIP3   OH218878   4.411   4.468   5.241  0.2357  0.5118 -0.0080
 6150TIP3    H118879   4.386   4.536   5.178  1.0691  1.1804  0.3862
 6150TIP3    H218880   4.351   4.481   5.314 -1.3795 -0.8749 -1.0442
 6151TIP3   OH218881   3.133   4.439   2.866  0.0313  0.2833  0.0504
 6151TIP3    H118882   3.175   4.460   2.950 -0.6335  0.9830  0.2149
 6151TIP3    H218883   3.138   4.521   2.816  0.2995 -0.0906 -0.5471
 6152TIP3   OH218884   4.860   4.002   4.605  0.0296 -0.4419  0.0217
 6152TIP3    H118885   4.867   3.907   4.618  2.8697 -0.4642 -1.3629
 6152TIP3    H218886   4.815   4.011   4.520 -0.0901 -0.5280  0.0740
 6153TIP3   OH218887   1.007   4.229   5.573 -0.0511  0.7413  0.0732
 6153TIP3    H118888   0.993   4.292   5.643 -3.1942 -1.1648  1.2551
 6153TIP3    H218889   1.073   4.169   5.607  0.2545  1.2376  0.3707
 6154TIP3   OH218890   5.014   4.051   2.982 -0.4729  0.1990  0.0405
 6154TIP3    H118891   5.031   3.957   2.969  1.6150  0.6143 -0.4867
 6154TIP3    H218892   5.021   4.089   2.895 -2.5354  0.7037  0.0639
 6155TIP3   OH218893   2.320   0.981   4.829  0.9406 -0.0611  0.2420
 6155TIP3    H118894   2.368   0.968   4.747  1.0638 -1.0864  0.4651
 6155TIP3    H218895   2.379   0.946   4.896  0.3963 -0.2044  0.6482
 6156TIP3   OH218896   0.008   5.590   2.585 -0.4167  0.5042 -0.1564
 6156TIP3    H118897   0.096   5.564   2.559 -0.2115  0.4129  0.6213
 6156TIP3    H218898  -0.029   5.630   2.507  0.5743  1.2047 -0.2724
 6157TIP3   OH218899   1.286   4.347   0.936  0.0355  0.3141 -0.3375
 6157TIP3    H118900   1.226   4.296   0.991 -1.1790  1.5293 -0.5267
 6157TIP3    H218901   1.355   4.285   0.914  0.2660 -0.3690  2.0874
 6158TIP3   OH218902   0.271   5.501   5.874  0.2614 -0.3425 -0.2432
 6158TIP3    H118903   0.227   5.544   5.947 -1.3406 -0.5316 -1.0791
 6158TIP3    H218904   0.347   5.459   5.914  0.6652  1.4538  0.9273
 6159TIP3   OH218905   3.912   5.174   4.188  0.2522  0.0227 -0.0373
 6159TIP3    H118906   3.965   5.199   4.112 -0.1715 -0.8749 -0.6376
 6159TIP3    H218907   3.836   5.130   4.150 -0.4403  0.4307  0.8633
 6160TIP3   OH218908   5.064   1.147   3.003  0.1582 -0.3488 -0.5444
 6160TIP3    H118909   5.096   1.118   3.088  0.7447 -1.9619 -1.2779
 6160TIP3    H218910   4.974   1.115   2.998 -0.5496  1.4776  0.2602
 6161TIP3   OH218911   4.017   5.253   5.878 -0.4676  0.0769  0.5427
 6161TIP3    H118912   4.040   5.265   5.970 -1.6927 -1.8418  1.1119
 6161TIP3    H218913   3.922   5.253   5.876 -0.4664  1.7579 -0.9680
 6162TIP3   OH218914   4.753   5.799   5.420  0.0478  0.0349  0.4743
 6162TIP3    H118915   4.837   5.753   5.408 -0.0143  0.3209 -1.2350
 6162TIP3    H218916   4.776   5.878   5.469  0.9120  0.5013 -0.6627
 6163TIP3   OH218917   1.307   3.216   4.001 -0.1561 -0.3389 -0.8522
 6163TIP3    H118918   1.301   3.147   4.067 -1.8540  0.8143  0.2608
 6163TIP3    H218919   1.344   3.291   4.049  2.5348 -0.7195 -2.2686
 6164TIP3   OH218920   0.020   4.813   4.431  0.2526  0.0738 -0.2669
 6164TIP3    H118921  -0.070   4.782   4.432  0.2319  0.1391  3.1820
 6164TIP3    H218922   0.070   4.739   4.397 -1.0789  0.1326 -2.4808
 6165TIP3   OH218923   0.430   4.548   3.314 -0.3379 -0.7477  0.4539
 6165TIP3    H118924   0.367   4.612   3.348 -0.7228 -1.0083  0.2248
 6165TIP3    H218925   0.407   4.537   3.222  0.0899 -0.7888  0.3470
 6166TIP3   OH218926   4.343   5.113   3.975 -0.0871  0.4817  0.4238
 6166TIP3    H118927   4.356   5.025   4.011 -1.0296 -0.5069 -1.5402
 6166TIP3    H218928   4.265   5.145   4.019  0.0936  0.2197  0.9418
 6167TIP3   OH218929   4.522   5.057   4.430  0.0649 -0.6307 -0.4970
 6167TIP3    H118930   4.590   5.063   4.362 -1.7365  0.6922 -2.2655
 6167TIP3    H218931   4.524   5.143   4.472  0.1187 -0.9108  0.0667
 6168TIP3   OH218932   0.441   4.255   2.792  0.0146 -0.0605 -0.3064
 6168TIP3    H118933   0.468   4.347   2.795 -0.4090  0.1602 -2.4903
 6168TIP3    H218934   0.523   4.206   2.794  0.2198  0.2998  1.7406
 6169TIP3   OH218935   5.776   5.330   1.522 -0.4618 -0.0196  0.5423
 6169TIP3    H118936   5.707   5.395   1.518 -1.1541 -0.7388  0.6664
 6169TIP3    H218937   5.763   5.275   1.444 -1.1369 -1.2498  1.5081
 6170TIP3   OH218938   5.585   4.732   4.618  0.4605  0.2421 -0.0395
 6170TIP3    H118939   5.530   4.655   4.613  2.8009 -1.5449  0.6131
 6170TIP3    H218940   5.588   4.767   4.529 -0.3881 -0.5773 -0.3904
 6171TIP3   OH218941   4.127   3.192   2.291 -0.3704  0.2671  0.1172
 6171TIP3    H118942   4.077   3.142   2.226 -0.7134  0.6024  0.1179
 6171TIP3    H218943   4.191   3.130   2.325  1.3037  0.6883 -2.1697
 6172TIP3   OH218944   3.998   5.280   3.355 -0.1487  0.5082 -0.1611
 6172TIP3    H118945   4.034   5.334   3.425 -1.7401  0.4620  0.7274
 6172TIP3    H218946   4.075   5.242   3.312  0.8649  0.7484  1.3941
 6173TIP3   OH218947   3.074   4.315   3.154 -0.1089 -0.5979 -0.1621
 6173TIP3    H118948   3.112   4.400   3.177  2.1140 -1.0930 -1.8156
 6173TIP3    H218949   2.980   4.329   3.161  0.2456  1.6793  0.7066
 6174TIP3   OH218950   4.767   1.202   6.096  0.0665  0.0015 -0.2210
 6174TIP3    H118951   4.861   1.191   6.084  0.1426 -0.0506  0.4123
 6174TIP3    H218952   4.749   1.288   6.058  0.5988  0.6008  0.8727
 6175TIP3   OH218953   4.688   3.975   3.336 -0.1039 -0.2278  0.3926
 6175TIP3    H118954   4.732   4.045   3.385 -0.9253  0.0143  0.8000
 6175TIP3    H218955   4.614   3.950   3.392 -1.6077  0.6998 -1.1458
 6176TIP3   OH218956   4.308   2.039   4.970 -0.2743 -0.3181 -0.0825
 6176TIP3    H118957   4.245   2.097   5.014  1.6822  0.6030  1.5663
 6176TIP3    H218958   4.281   1.951   4.996  1.1003  0.2153  3.4563
 6177TIP3   OH218959   5.364   3.473   4.617 -0.4019  0.1897  0.0143
 6177TIP3    H118960   5.286   3.498   4.668 -1.3660 -2.9074  0.2235
 6177TIP3    H218961   5.414   3.418   4.677  0.7918  0.3007 -0.8812
 6178TIP3   OH218962   5.124   4.579   4.438 -0.2139  0.2062 -0.2104
 6178TIP3    H118963   5.084   4.554   4.355  0.0065  0.9857 -0.5524
 6178TIP3    H218964   5.189   4.510   4.455 -0.3503 -0.0227 -0.6147
 6179TIP3   OH218965   0.601   4.594   5.875 -0.3512 -0.1246 -0.8595
 6179TIP3    H118966   0.682   4.588   5.825  1.0253  1.4065  1.0962
 6179TIP3    H218967   0.606   4.522   5.938 -0.7121 -0.2820 -1.0093
 6180TIP3   OH218968   4.278   2.016   4.690 -0.1544  0.4400 -0.1675
 6180TIP3    H118969   4.315   2.034   4.777 -0.6120  2.1493 -0.2976
 6180TIP3    H218970   4.305   1.926   4.670  2.0036  0.8477  0.7148
 6181TIP3   OH218971   3.483   0.785   5.535  0.4905 -0.3998  0.5503
 6181TIP3    H118972   3.389   0.803   5.546  0.8114  1.4276  0.3590
 6181TIP3    H218973   3.515   0.768   5.623  0.2417  0.3222  0.7850
 6182TIP3   OH218974   3.432   4.342   2.228 -0.2451  0.1555  0.1109
 6182TIP3    H118975   3.344   4.350   2.192 -0.1845 -2.0088 -0.5992
 6182TIP3    H218976   3.432   4.258   2.275  1.5333 -0.0544 -0.2037
 6183TIP3   OH218977   2.972   4.600   3.826 -0.2373 -0.1892  0.3145
 6183TIP3    H118978   2.923   4.660   3.769 -0.8007 -0.0508  0.9324
 6183TIP3    H218979   3.007   4.534   3.766  0.3026  0.6898 -0.3615
 6184TIP3   OH218980   3.061   1.384   0.495  0.0296  0.9980  0.0261
 6184TIP3    H118981   3.084   1.467   0.536  1.0246 -0.8019  3.3142
 6184TIP3    H218982   3.132   1.366   0.434  1.5106  1.0137  1.7086
 6185TIP3   OH218983   4.412   4.464   3.763  0.1196 -0.9229  0.8938
 6185TIP3    H118984   4.340   4.526   3.747 -0.2447 -1.5985 -0.0953
 6185TIP3    H218985   4.377   4.403   3.827 -0.2078 -1.2932  0.3590
 6186TIP3   OH218986   0.039   4.553   4.682 -0.1122 -0.0312  0.6244
 6186TIP3    H118987   0.122   4.545   4.636 -1.4071 -1.1713 -1.5999
 6186TIP3    H218988   0.063   4.582   4.770  2.5161  0.9584 -0.3752
 6187TIP3   OH218989   4.943   5.671   4.955 -0.1058  0.3314  0.6590
 6187TIP3    H118990   4.914   5.585   4.923  1.0519  0.5681 -1.1022
 6187TIP3    H218991   4.866   5.727   4.942  0.0305  0.2024 -0.8996
 6188TIP3   OH218992   5.304   5.204   5.814 -0.6045 -0.0170 -0.5285
 6188TIP3    H118993   5.231   5.155   5.777 -1.0059  0.6944 -0.6967
 6188TIP3    H218994   5.275   5.295   5.812 -0.9117 -0.0121  2.1391
 6189TIP3   OH218995   0.658   1.022   3.395 -0.5903  0.9036 -0.4349
 6189TIP3    H118996   0.742   1.019   3.440 -0.4735 -3.0438 -0.7956
 6189TIP3    H218997   0.678   1.058   3.309  0.6770  0.2269 -0.4245
 6190TIP3   OH218998   3.729   1.402   3.607 -0.5043  0.9683 -0.0006
 6190TIP3    H118999   3.770   1.393   3.693 -0.1464  1.0773 -0.1558
 6190TIP3    H219000   3.689   1.317   3.590  0.9081  0.3748 -0.4795
 6191TIP3   OH219001   5.354   5.153   2.844  0.5451 -0.3700 -0.4703
 6191TIP3    H119002   5.401   5.234   2.864 -0.5173  1.0545 -3.4200
 6191TIP3    H219003   5.416   5.102   2.791  1.1534 -1.4600  1.2438
 6192TIP3   OH219004   2.618   4.789   3.796 -0.4709 -0.1466 -0.0976
 6192TIP3    H119005   2.572   4.734   3.859 -1.3779 -0.2785 -0.8680
 6192TIP3    H219006   2.662   4.727   3.738 -0.1300 -0.0312  0.0346
 6193TIP3   OH219007   3.909   6.018   3.801 -0.5298  0.3228  0.3485
 6193TIP3    H119008   3.928   5.954   3.732 -1.4531 -0.2758  0.6461
 6193TIP3    H219009   3.897   6.101   3.754  1.2990  0.4108  0.0226
 6194TIP3   OH219010   0.014   1.398   5.339  0.0790  0.1274  0.1838
 6194TIP3    H119011   0.093   1.362   5.300 -2.4073 -1.8189 -3.3086
 6194TIP3    H219012  -0.042   1.322   5.354 -2.5476  1.7891 -0.8431
 6195TIP3   OH219013   5.824   3.307   0.324 -0.0812  0.1353 -0.1726
 6195TIP3    H119014   5.888   3.378   0.325  0.2791 -0.1347 -2.1847
 6195TIP3    H219015   5.759   3.333   0.259 -1.1984 -0.3133  0.7534
 6196TIP3   OH219016   5.714   1.038   5.219  0.1966 -0.7948  0.1093
 6196TIP3    H119017   5.744   0.957   5.260 -2.1655 -2.4840 -1.3509
 6196TIP3    H219018   5.681   1.091   5.291  3.2303 -0.3880  1.2860
 6197TIP3   OH219019   5.549   0.678   3.026  0.5458 -0.0070  0.2341
 6197TIP3    H119020   5.559   0.729   2.945  1.7824 -1.0344 -0.2641
 6197TIP3    H219021   5.512   0.595   2.998 -0.9867  0.3787  0.9971
 6198TIP3   OH219022   2.580   5.366   5.215 -0.3835 -0.2951  0.3324
 6198TIP3    H119023   2.626   5.383   5.297  0.2924  1.2576 -0.3584
 6198TIP3    H219024   2.489   5.355   5.241 -0.1671  0.1324  1.3074
 6199TIP3   OH219025   3.638   5.661   3.170  0.0763  0.0511 -0.2666
 6199TIP3    H119026   3.577   5.642   3.241  2.8598  0.6797  2.4155
 6199TIP3    H219027   3.646   5.757   3.169  0.6023  0.0081 -0.9307
 6200TIP3   OH219028   3.690   4.301   4.558 -0.1197 -0.0133 -0.0734
 6200TIP3    H119029   3.595   4.296   4.547 -0.0804  0.3053 -0.5415
 6200TIP3    H219030   3.702   4.337   4.646 -0.4267 -0.3813  0.1240
 6201TIP3   OH219031   5.097   5.666   3.771 -0.1005 -0.3137 -0.1328
 6201TIP3    H119032   5.180   5.620   3.766 -1.1039 -2.1048 -0.8661
 6201TIP3    H219033   5.051   5.641   3.691 -0.5854  2.1881 -0.6703
 6202TIP3   OH219034   4.653   5.163   0.742 -0.2623  0.0444 -0.3140
 6202TIP3    H119035   4.584   5.228   0.731 -1.4219 -1.6228 -3.3955
 6202TIP3    H219036   4.734   5.213   0.740 -1.1813  1.4987 -1.7926
 6203TIP3   OH219037   0.527   5.169   3.364  0.2453 -0.0642 -0.3104
 6203TIP3    H119038   0.489   5.175   3.277 -0.9037  0.3845  0.2154
 6203TIP3    H219039   0.520   5.257   3.400 -0.2641 -0.4836  0.6349
 6204TIP3   OH219040   4.117   4.162   4.718  0.0230  0.0099 -0.0860
 6204TIP3    H119041   4.042   4.153   4.659 -0.7149  1.5285  0.5987
 6204TIP3    H219042   4.079   4.160   4.806  1.1332 -2.4786  0.3915
 6205TIP3   OH219043   2.111   4.141   5.239 -0.3872  0.0972  0.6427
 6205TIP3    H119044   2.050   4.206   5.274 -0.2219  1.5251 -1.6505
 6205TIP3    H219045   2.134   4.174   5.152  2.1106 -1.4667  0.6815
 6206TIP3   OH219046   5.049   5.226   4.858 -0.3441  0.1911  0.0096
 6206TIP3    H119047   4.994   5.150   4.836 -1.7488  1.1708  0.1017
 6206TIP3    H219048   5.119   5.224   4.793 -0.0535 -1.5079  0.3503
 6207TIP3   OH219049   4.132   0.677   3.597  0.0901  0.3775  0.7339
 6207TIP3    H119050   4.171   0.765   3.597  0.0278  0.4161 -0.3839
 6207TIP3    H219051   4.207   0.619   3.586 -0.0799  0.4200 -0.8013
 6208TIP3   OH219052   1.683   5.844   4.537  0.1849  0.1239 -0.8529
 6208TIP3    H119053   1.770   5.812   4.513  0.0568  0.2708 -1.5126
 6208TIP3    H219054   1.644   5.873   4.455  0.1126  1.5279 -0.3279
 6209TIP3   OH219055   0.429   3.811   5.027  0.0237 -0.2902  0.0573
 6209TIP3    H119056   0.431   3.753   5.102 -2.1034  1.9848  1.9478
 6209TIP3    H219057   0.367   3.771   4.967  0.7538 -1.4338  0.0421
 6210TIP3   OH219058   6.063   4.829   0.723 -0.4093  0.7614  0.2084
 6210TIP3    H119059   6.152   4.857   0.741 -0.1773 -0.1332  0.5115
 6210TIP3    H219060   6.030   4.890   0.657  0.4450  1.0568  0.0587
 6211TIP3   OH219061   4.571   1.328   4.600  0.1399 -0.4737  0.3573
 6211TIP3    H119062   4.574   1.378   4.519  0.6128 -0.6286  0.2778
 6211TIP3    H219063   4.492   1.274   4.591 -0.5113  0.4268  0.5519
 6212TIP3   OH219064   3.745   1.666   5.927  0.2152 -0.3171  0.0838
 6212TIP3    H119065   3.751   1.749   5.974  0.4196  1.0369 -2.2394
 6212TIP3    H219066   3.665   1.673   5.875  0.7851 -1.1265 -0.9366
 6213TIP3   OH219067   3.088   0.556   3.899 -0.1248  0.2882  0.1024
 6213TIP3    H119068   3.183   0.553   3.895 -0.1111 -0.8072  1.1684
 6213TIP3    H219069   3.068   0.562   3.992 -1.0970  0.8624 -0.1324
 6214TIP3   OH219070   4.164   5.609   4.871 -0.2753 -0.0261 -0.5527
 6214TIP3    H119071   4.216   5.557   4.811 -0.0115  1.9592 -2.1051
 6214TIP3    H219072   4.164   5.560   4.953  3.7620 -0.2384 -0.6245
 6215TIP3   OH219073   0.021   3.019   4.609 -0.2304 -0.2977 -0.1541
 6215TIP3    H119074  -0.021   3.104   4.618  0.5685 -0.0356  1.3224
 6215TIP3    H219075   0.075   3.010   4.688  0.9339 -1.4783 -1.0480
 6216TIP3   OH219076   4.130   0.240   4.339 -0.5064 -0.1332  0.3469
 6216TIP3    H119077   4.180   0.246   4.420 -0.6647  0.6477  0.3838
 6216TIP3    H219078   4.086   0.155   4.345  1.2587 -1.0925  0.0558
 6217TIP3   OH219079   3.571   5.792   2.105  0.1229 -0.1802  0.0434
 6217TIP3    H119080   3.541   5.771   2.194  0.4007 -0.1642  0.1429
 6217TIP3    H219081   3.492   5.819   2.059 -0.0429 -0.3019  0.2542
 6218TIP3   OH219082   5.502   2.871   2.361 -0.0973 -0.0259  0.0365
 6218TIP3    H119083   5.463   2.914   2.284 -2.0181 -0.3839  0.7976
 6218TIP3    H219084   5.572   2.817   2.325 -0.4449  0.4429 -1.3839
 6219TIP3   OH219085   0.169   2.621   3.160 -0.3895  0.2185  0.3420
 6219TIP3    H119086   0.131   2.607   3.246 -1.4662  0.0213 -0.1633
 6219TIP3    H219087   0.245   2.563   3.158 -1.5195 -1.2953  0.4084
 6220TIP3   OH219088   2.742   0.397   4.453  0.0699  0.2183 -0.2717
 6220TIP3    H119089   2.741   0.386   4.358  2.6723 -2.3106 -0.0817
 6220TIP3    H219090   2.750   0.492   4.466 -1.2440  0.6826 -2.5210
 6221TIP3   OH219091   4.799   5.396   3.920  0.4633  0.0794  0.1928
 6221TIP3    H119092   4.795   5.301   3.927  1.7452  0.1328  2.3148
 6221TIP3    H219093   4.795   5.414   3.826  2.0133 -2.1705 -0.3468
 6222TIP3   OH219094   0.095   3.158   3.383  0.4072  0.3785  0.4452
 6222TIP3    H119095   0.114   3.070   3.350 -1.1373 -0.6458  2.2048
 6222TIP3    H219096   0.160   3.172   3.452  0.2123  0.3364  0.6376
 6223TIP3   OH219097   5.278   3.632   5.172  0.7606 -0.1541 -0.0607
 6223TIP3    H119098   5.334   3.556   5.190  0.2080 -0.5667 -0.0710
 6223TIP3    H219099   5.296   3.652   5.080  2.1804  0.7938  0.4054
 6224TIP3   OH219100   3.268   4.738   2.132  0.0972 -0.4795  0.3202
 6224TIP3    H119101   3.282   4.804   2.200  1.7258 -0.2791 -0.1712
 6224TIP3    H219102   3.180   4.755   2.099  1.1717  2.6422 -1.0569
 6225TIP3   OH219103   4.623   3.889   4.164  0.2979 -0.3452  0.0614
 6225TIP3    H119104   4.671   3.812   4.132  0.2328 -0.9932  1.4756
 6225TIP3    H219105   4.545   3.852   4.205  1.5174  0.2581  3.0575
 6226TIP3   OH219106   1.803   5.556   3.278 -0.2144 -0.4144  0.7253
 6226TIP3    H119107   1.769   5.536   3.365 -0.5320 -2.5743  0.1450
 6226TIP3    H219108   1.830   5.647   3.283 -1.1796 -0.2082  2.7797
 6227TIP3   OH219109   3.169   2.587   1.751  0.5101  0.5602  0.4912
 6227TIP3    H119110   3.257   2.550   1.761  1.1300  1.9696  0.4511
 6227TIP3    H219111   3.155   2.637   1.831 -0.7428 -0.5949  1.0091
 6228TIP3   OH219112   3.536   1.346   4.022 -1.1696 -0.3393 -0.0892
 6228TIP3    H119113   3.599   1.300   4.078 -0.8663  0.0106 -0.1431
 6228TIP3    H219114   3.498   1.413   4.079  0.3316  1.0956 -0.7530
 6229TIP3   OH219115   0.708   2.678   5.339  0.2790 -0.3327  0.4868
 6229TIP3    H119116   0.617   2.687   5.311  0.3531 -2.1932 -0.4152
 6229TIP3    H219117   0.703   2.672   5.434 -0.6108 -1.1560  0.3917
 6230TIP3   OH219118   4.737   5.549   4.176  0.1372 -0.1342  0.3737
 6230TIP3    H119119   4.709   5.526   4.087 -1.2816 -2.7044  1.4213
 6230TIP3    H219120   4.828   5.575   4.166 -0.5850  1.5835 -2.1134
 6231TIP3   OH219121   5.433   4.964   4.535  0.1745 -0.3707 -0.3697
 6231TIP3    H119122   5.341   4.988   4.544  0.4535  0.0324  1.6618
 6231TIP3    H219123   5.456   4.925   4.619  1.6519 -1.2116 -1.1414
 6232TIP3   OH219124   5.609   0.303   5.030 -0.3950 -0.7401  0.0715
 6232TIP3    H119125   5.544   0.242   5.066  0.2968 -1.2360  0.5183
 6232TIP3    H219126   5.672   0.314   5.101 -0.7003  0.7823  0.1106
 6233TIP3   OH219127   3.432   5.302   5.355 -0.6652 -0.2787  0.2422
 6233TIP3    H119128   3.452   5.373   5.416 -2.2970  0.0953  0.3793
 6233TIP3    H219129   3.481   5.227   5.389  0.1366  0.4701  0.7774
 6234TIP3   OH219130   4.065   2.184   4.587  0.1436 -0.3451 -0.3781
 6234TIP3    H119131   4.067   2.170   4.492  3.5730 -0.1791 -0.3669
 6234TIP3    H219132   4.124   2.119   4.623  0.9472  1.3101  1.4023
 6235TIP3   OH219133   0.973   4.118   5.875 -0.3357 -0.0392 -0.1363
 6235TIP3    H119134   0.880   4.142   5.881 -0.8663 -2.4121  2.0574
 6235TIP3    H219135   1.012   4.157   5.954 -0.0045 -1.2495  0.3039
 6236TIP3   OH219136   3.288   5.467   4.354  0.1010 -0.5052 -0.5803
 6236TIP3    H119137   3.364   5.525   4.367 -0.4967  0.3228 -0.7236
 6236TIP3    H219138   3.326   5.383   4.329  1.0166 -0.3526  0.2535
 6237TIP3   OH219139   5.243   2.911   2.744 -0.4396 -0.9327 -0.2547
 6237TIP3    H119140   5.300   2.869   2.680 -0.0925 -0.3811 -0.3134
 6237TIP3    H219141   5.300   2.973   2.790 -1.2540  0.5275 -1.1689
 6238TIP3   OH219142   4.833   5.215   4.337  0.2898 -0.1056  0.3421
 6238TIP3    H119143   4.926   5.213   4.314  0.0164  1.4842 -1.0652
 6238TIP3    H219144   4.791   5.255   4.261 -1.5905 -1.0664  0.8490
 6239TIP3   OH219145   4.993   3.778   3.003  0.4383  0.0492  0.2336
 6239TIP3    H119146   4.960   3.703   3.053  0.6270 -0.9285 -1.0670
 6239TIP3    H219147   4.919   3.838   2.997 -0.6072 -1.3604 -1.1990
 6240TIP3   OH219148   5.209   4.506   5.151  0.9978 -0.4136  0.3741
 6240TIP3    H119149   5.145   4.473   5.215  1.4955 -1.5778  0.2833
 6240TIP3    H219150   5.156   4.545   5.082  0.3930 -1.1369  0.4259
 6241TIP3   OH219151   0.228   1.992   4.193 -0.3151  0.0545 -0.2949
 6241TIP3    H119152   0.250   2.064   4.252 -1.9066  0.0971  0.2768
 6241TIP3    H219153   0.162   2.029   4.134 -0.1351 -0.5521 -0.8818
 6242TIP3   OH219154   0.289   4.967   0.099  0.4619  0.0615 -0.5668
 6242TIP3    H119155   0.303   4.896   0.037  0.1050  0.4375 -1.0827
 6242TIP3    H219156   0.263   5.042   0.045  1.4506  0.7594 -0.0939
 6243TIP3   OH219157   5.749   2.638   3.059 -0.2793  0.4129  0.7185
 6243TIP3    H119158   5.783   2.726   3.074 -0.3776  0.7459 -0.8794
 6243TIP3    H219159   5.718   2.639   2.968 -1.3874 -0.9127  1.0521
 6244TIP3   OH219160   3.813   0.215   4.417 -0.0408 -0.1221 -0.0588
 6244TIP3    H119161   3.853   0.223   4.331  0.1258  0.2492  0.0496
 6244TIP3    H219162   3.786   0.124   4.423 -1.3305  0.1875 -1.0684
 6245TIP3   OH219163   3.742   4.654   3.705  0.3191  0.4662 -0.5679
 6245TIP3    H119164   3.771   4.702   3.628  0.8716 -0.4328 -0.9359
 6245TIP3    H219165   3.681   4.588   3.671  1.8085 -1.0025 -0.4702
 6246TIP3   OH219166   3.415   5.075   5.684 -0.4796 -0.0900 -0.3972
 6246TIP3    H119167   3.461   5.085   5.600  0.2662 -0.1368  0.0004
 6246TIP3    H219168   3.419   5.162   5.723 -1.4593  0.1045 -0.7318
 6247TIP3   OH219169   5.070   3.058   3.593  0.2849  0.7286  0.5021
 6247TIP3    H119170   5.111   3.143   3.579 -0.3840  1.3222  2.0336
 6247TIP3    H219171   5.086   3.038   3.685 -0.6379 -0.2302  0.4688
 6248TIP3   OH219172   4.629   4.464   0.248 -0.1376  0.0565 -0.1025
 6248TIP3    H119173   4.550   4.518   0.241 -0.3287 -0.0578  1.0102
 6248TIP3    H219174   4.667   4.487   0.333 -0.0788 -1.3413  0.2764
 6249TIP3   OH219175   0.411   5.899   4.796 -0.1100 -0.1590 -0.2957
 6249TIP3    H119176   0.436   5.808   4.777  0.1388 -0.2002  0.2269
 6249TIP3    H219177   0.349   5.892   4.869  0.1188  0.1140 -0.0764
 6250TIP3   OH219178   0.413   3.952   0.329 -0.0670  0.7684  0.6833
 6250TIP3    H119179   0.426   3.886   0.397  2.4948  0.0769 -0.4174
 6250TIP3    H219180   0.391   4.032   0.376 -0.4119 -0.2090  2.1903
 6251TIP3   OH219181   3.761   4.827   3.489 -0.9261  0.2452  0.3301
 6251TIP3    H119182   3.809   4.779   3.421 -0.6237 -0.7614  1.2549
 6251TIP3    H219183   3.802   4.914   3.490  0.5424 -0.4378  0.7604
 6252TIP3   OH219184   5.146   4.567   5.609  0.0700  0.0819  0.6081
 6252TIP3    H119185   5.215   4.501   5.612  0.4255  0.5275  2.3280
 6252TIP3    H219186   5.190   4.650   5.626 -0.5964  0.6242 -0.2074
 6253TIP3   OH219187   5.561   3.833   5.090  0.9769  0.1805 -0.1697
 6253TIP3    H119188   5.522   3.752   5.121  2.7227 -0.4631  0.3958
 6253TIP3    H219189   5.568   3.822   4.995 -1.9006  1.0699 -0.5349
 6254TIP3   OH219190   4.265   1.858   4.360 -0.2449  0.1286  0.0690
 6254TIP3    H119191   4.216   1.808   4.425  0.4033 -3.3875 -2.0348
 6254TIP3    H219192   4.356   1.855   4.391 -0.2946  0.6523  0.2850
 6255TIP3   OH219193   0.731   3.022   3.769  0.0056  0.0337  0.2892
 6255TIP3    H119194   0.730   3.006   3.675  1.6436  2.4943 -0.1929
 6255TIP3    H219195   0.657   2.971   3.803 -1.9904  0.8412 -2.6405
 6256TIP3   OH219196   5.129   5.113   3.622  0.2273 -0.5625 -0.0128
 6256TIP3    H119197   5.041   5.118   3.660 -0.1948 -2.5744 -0.6671
 6256TIP3    H219198   5.160   5.026   3.646  1.5346 -0.3364 -0.8662
 6257TIP3   OH219199   4.466   1.344   5.151  0.2771  0.4544 -0.0500
 6257TIP3    H119200   4.372   1.332   5.137  0.1473 -0.2432  1.2798
 6257TIP3    H219201   4.502   1.358   5.063 -1.1079  1.0635 -0.5331
 6258TIP3   OH219202   2.977   3.968   3.098 -0.1237  0.6448  0.3005
 6258TIP3    H119203   2.941   3.928   3.177 -1.1770  0.8594 -0.0613
 6258TIP3    H219204   3.057   3.919   3.080  0.2974  0.8138  1.6874
 6259TIP3   OH219205   2.332   0.859   4.511 -0.4857  0.0250  0.4503
 6259TIP3    H119206   2.316   0.798   4.583  1.4456 -0.7308  0.2765
 6259TIP3    H219207   2.314   0.807   4.432 -0.3230  0.1317  0.3421
 6260TIP3   OH219208   2.942   4.292   2.572 -0.0128  0.3044  0.3999
 6260TIP3    H119209   2.847   4.284   2.583 -0.0472 -0.3532 -0.3626
 6260TIP3    H219210   2.978   4.265   2.656 -0.4850  0.1559  0.5587
 6261TIP3   OH219211   3.826   4.950   0.428 -0.7034  0.7568  0.1151
 6261TIP3    H119212   3.901   4.949   0.487 -0.2054 -0.8893 -0.5076
 6261TIP3    H219213   3.762   4.890   0.467 -0.8163  0.5070 -0.4314
 6262TIP3   OH219214   2.323   5.010   5.755 -0.4058  0.0725  0.3951
 6262TIP3    H119215   2.229   5.019   5.768 -0.5008 -0.5752  0.1447
 6262TIP3    H219216   2.335   5.019   5.661 -0.3422 -0.9676  0.3000
 6263TIP3   OH219217   4.400   4.722   0.642  0.8137 -0.0055  0.3312
 6263TIP3    H119218   4.385   4.817   0.648 -0.3069 -0.2157  1.0340
 6263TIP3    H219219   4.314   4.686   0.618  1.4063 -0.7710 -0.6496
 6264TIP3   OH219220   1.447   1.920   0.120  0.2710 -0.2321  0.0818
 6264TIP3    H119221   1.524   1.930   0.177 -0.1908  0.3293  0.6086
 6264TIP3    H219222   1.380   1.881   0.176  0.3692 -1.3573 -0.5539
 6265TIP3   OH219223   5.584   2.356   4.703 -0.4318  0.4129  0.4225
 6265TIP3    H119224   5.598   2.265   4.728  4.4273  0.3378 -2.0257
 6265TIP3    H219225   5.614   2.406   4.779  0.2971 -0.0270  0.4341
 6266TIP3   OH219226   0.691   6.046   5.310  0.0399  0.6334 -0.4567
 6266TIP3    H119227   0.679   6.009   5.397 -0.7746  0.9544 -0.4293
 6266TIP3    H219228   0.767   5.999   5.274 -2.2044 -2.6031 -1.2452
 6267TIP3   OH219229   3.211   3.625   4.508  0.6584 -0.2211 -0.2219
 6267TIP3    H119230   3.194   3.541   4.550  2.4211 -0.3207  0.3199
 6267TIP3    H219231   3.284   3.662   4.557  0.0993  1.5027 -0.6403
 6268TIP3   OH219232   4.295   2.464   3.287 -0.3915 -0.1838 -0.3136
 6268TIP3    H119233   4.323   2.458   3.195  0.0243  1.8171 -0.3468
 6268TIP3    H219234   4.206   2.501   3.282 -0.6949 -0.8664  0.0526
 6269TIP3   OH219235   1.050   5.525   2.395 -0.0487 -0.2342 -0.4461
 6269TIP3    H119236   1.108   5.464   2.350  0.3109 -0.0933 -0.1675
 6269TIP3    H219237   1.091   5.541   2.479 -1.6297 -1.8658  0.6674
 6270TIP3   OH219238   3.919   6.026   0.578 -0.3194 -0.5014  0.2241
 6270TIP3    H119239   3.966   5.949   0.546 -1.0206 -0.2553 -1.4697
 6270TIP3    H219240   3.865   6.054   0.504  0.0177  1.7114  0.7659
 6271TIP3   OH219241   3.919   4.685   0.686 -0.3412  0.5894  0.4133
 6271TIP3    H119242   3.895   4.624   0.755 -1.2839 -0.0834 -0.4833
 6271TIP3    H219243   3.838   4.729   0.662 -0.5655 -1.0575 -2.0341
 6272TIP3   OH219244   0.586   5.530   0.117 -0.0894  0.4486  0.0117
 6272TIP3    H119245   0.673   5.533   0.077  0.0996  1.2234  0.4743
 6272TIP3    H219246   0.591   5.592   0.190 -1.1094  0.6794 -0.1120
 6273TIP3   OH219247   1.001   0.045   6.037 -0.7645 -0.2592  0.1582
 6273TIP3    H119248   1.088   0.047   6.076  0.5198  1.5658 -2.5739
 6273TIP3    H219249   1.006  -0.022   5.969 -0.3208  2.1897 -2.3350
 6274TIP3   OH219250   4.731   3.111   0.926  0.3530 -0.4954 -0.2797
 6274TIP3    H119251   4.724   3.061   1.008  0.8282 -0.7642 -0.3984
 6274TIP3    H219252   4.767   3.048   0.863  0.2590 -0.2081 -0.6184
 6275TIP3   OH219253   5.232   4.062   0.763 -0.4322  0.3624  0.1718
 6275TIP3    H119254   5.253   4.065   0.856  0.6255  0.0746 -0.0475
 6275TIP3    H219255   5.222   4.153   0.737 -1.4408  0.4199  0.7099
 6276TIP3   OH219256   0.345   5.119   4.460  0.3692  0.0784 -0.1484
 6276TIP3    H119257   0.431   5.161   4.469  0.4928 -0.3104  0.5867
 6276TIP3    H219258   0.283   5.187   4.486  0.6733 -0.7251  2.8964
 6277TIP3   OH219259   0.960   4.985   0.784 -0.5727 -0.4230 -0.0113
 6277TIP3    H119260   0.971   4.894   0.759 -2.9181 -0.6873 -0.2484
 6277TIP3    H219261   1.011   4.995   0.865  2.9215 -0.8703 -2.0702
 6278TIP3   OH219262   3.533   4.056   4.985 -0.0940  0.1606  0.2243
 6278TIP3    H119263   3.493   4.138   4.955 -0.9806 -0.5759 -0.6503
 6278TIP3    H219264   3.627   4.073   4.982 -0.1828  0.4544 -2.0935
 6279TIP3   OH219265   4.926   3.148   0.120  0.2366  0.4037  0.1156
 6279TIP3    H119266   5.010   3.119   0.086  0.8968  0.6065  1.5262
 6279TIP3    H219267   4.916   3.238   0.088 -0.4339 -0.3418 -1.8003
 6280TIP3   OH219268   4.686   4.893   3.660  0.5419 -0.4422  0.1623
 6280TIP3    H119269   4.632   4.942   3.597 -0.0132  1.3032  1.9407
 6280TIP3    H219270   4.622   4.853   3.720  1.0923 -1.3433  0.1506
 6281TIP3   OH219271   4.550   3.392   5.064  0.2191 -0.1820 -0.1231
 6281TIP3    H119272   4.593   3.311   5.090  0.3364  0.8140  3.0181
 6281TIP3    H219273   4.601   3.423   4.989  2.3025 -1.2523  0.8179
 6282TIP3   OH219274   4.068   4.645   4.478  0.4445 -0.4756 -0.0057
 6282TIP3    H119275   4.061   4.688   4.563  0.0487  2.3172 -1.4037
 6282TIP3    H219276   4.031   4.558   4.492 -0.8036  0.4023  2.3666
 6283TIP3   OH219277   0.730   4.859   3.964  0.5877 -0.7415  0.1192
 6283TIP3    H119278   0.741   4.953   3.980 -2.5624 -0.4448  0.6970
 6283TIP3    H219279   0.728   4.851   3.869  1.9222 -0.3744  0.0484
 6284TIP3   OH219280   0.292   4.752   5.653  0.4474 -0.2461 -0.4674
 6284TIP3    H119281   0.236   4.686   5.612 -3.2808  2.7260 -0.3374
 6284TIP3    H219282   0.340   4.791   5.580 -0.7765  0.0403 -1.1335
 6285TIP3   OH219283   2.196   3.836   5.042 -0.5880  0.2502 -0.4104
 6285TIP3    H119284   2.277   3.858   4.997 -0.3367  0.6265  0.2172
 6285TIP3    H219285   2.166   3.755   5.000  0.4084 -0.2057 -0.2659
 6286TIP3   OH219286   0.758   2.174   6.087 -0.2545 -0.0216  0.2262
 6286TIP3    H119287   0.677   2.225   6.094  1.0044  2.4923 -2.5463
 6286TIP3    H219288   0.800   2.185   6.172 -2.6356 -1.1443  1.6248
 6287TIP3   OH219289   1.482   5.670   0.099  0.3357  0.0778 -0.0765
 6287TIP3    H119290   1.577   5.660   0.103  0.2730 -0.1960  0.7595
 6287TIP3    H219291   1.449   5.599   0.154 -0.3778 -0.3678 -1.0721
 6288TIP3   OH219292   4.195   0.828   3.877 -0.4951 -0.0172 -0.4183
 6288TIP3    H119293   4.186   0.749   3.825 -2.6858  0.6385 -1.0897
 6288TIP3    H219294   4.151   0.896   3.826  1.9177  1.8241 -0.1897
 6289TIP3   OH219295   5.622   4.717   2.054 -0.1764  0.5264 -0.0298
 6289TIP3    H119296   5.632   4.654   2.125 -0.5697  0.0115 -0.4270
 6289TIP3    H219297   5.529   4.712   2.030  0.4111 -1.0153 -2.1490
 6290TIP3   OH219298   5.845   0.392   3.646  0.3676  0.1338 -0.2299
 6290TIP3    H119299   5.889   0.473   3.672  0.7312  0.2273 -1.1107
 6290TIP3    H219300   5.789   0.417   3.573 -0.9665 -0.0423  0.7018
 6291TIP3   OH219301   0.725   3.898   6.035 -0.1006 -0.6622 -0.1015
 6291TIP3    H119302   0.654   3.905   6.099 -0.7348 -0.0113 -0.8597
 6291TIP3    H219303   0.793   3.956   6.067  1.4050 -3.6161  2.2828
 6292TIP3   OH219304   3.702   1.898   0.001  0.0522  0.1615  0.0737
 6292TIP3    H119305   3.668   1.855   0.079  1.0544 -3.7938 -1.5439
 6292TIP3    H219306   3.625   1.936  -0.041 -1.3350 -2.5581  0.0860
 6293TIP3   OH219307   5.526   5.813   5.660  0.0953  0.0172 -0.1918
 6293TIP3    H119308   5.494   5.879   5.598  0.2134 -0.8082 -1.1607
 6293TIP3    H219309   5.566   5.746   5.604 -1.6857 -1.8008  0.6475
 6294TIP3   OH219310   4.007   1.043   3.832 -0.8198 -0.0378  0.2044
 6294TIP3    H119311   3.937   1.095   3.791 -1.6097 -0.9677  0.3711
 6294TIP3    H219312   3.963   0.965   3.865  0.3587 -0.8119 -0.0243
 6295TIP3   OH219313   0.546   1.225   4.364  0.3712 -0.1772 -0.0039
 6295TIP3    H119314   0.639   1.238   4.384 -0.2714  1.5518  2.0925
 6295TIP3    H219315   0.544   1.206   4.270  2.9273 -1.4543  0.1416
 6296TIP3   OH219316   2.290   5.680   5.301  0.0311 -0.0731  0.0933
 6296TIP3    H119317   2.204   5.717   5.322 -0.5359 -1.2942 -0.0274
 6296TIP3    H219318   2.344   5.701   5.376 -0.0154  1.7803 -0.3531
 6297TIP3   OH219319   2.844   0.029   5.106  0.5556 -0.1776 -0.3454
 6297TIP3    H119320   2.827  -0.060   5.138 -0.1027  0.1318  0.1810
 6297TIP3    H219321   2.851   0.020   5.011  1.9598 -1.0243 -0.1855
 6298TIP3   OH219322   3.691   5.623   3.871  0.5537 -0.5456  0.1521
 6298TIP3    H119323   3.730   5.688   3.929 -0.4127  0.7075 -0.5989
 6298TIP3    H219324   3.624   5.580   3.924  1.5877 -1.3484  0.8301
 6299TIP3   OH219325   5.348   0.506   2.245 -0.0070 -0.8965  0.0860
 6299TIP3    H119326   5.374   0.599   2.244 -2.9728 -0.0231 -0.1840
 6299TIP3    H219327   5.389   0.470   2.166  0.8976  0.2692 -0.0024
 6300TIP3   OH219328   4.869   2.987   5.282  0.3715  0.3383  0.4309
 6300TIP3    H119329   4.867   2.892   5.267  0.7246  0.6185 -1.5076
 6300TIP3    H219330   4.945   3.018   5.232 -0.2847  1.7593  0.2846
 6301TIP3   OH219331   5.962   3.629   4.588  0.6865  0.3819 -0.2870
 6301TIP3    H119332   5.880   3.674   4.567  0.3553  0.7328  1.7441
 6301TIP3    H219333   5.964   3.554   4.528 -1.5282 -0.1336  0.2605
 6302TIP3   OH219334   4.353   3.429   4.628  0.1591 -0.2708  0.4063
 6302TIP3    H119335   4.330   3.435   4.721  0.5768  1.3628  0.4339
 6302TIP3    H219336   4.431   3.374   4.626  2.1344  2.3818  1.4251
 6303TIP3   OH219337   4.051   2.996   0.644  0.4544 -0.2372  0.2632
 6303TIP3    H119338   4.071   3.089   0.634 -3.3787  0.7406  1.1722
 6303TIP3    H219339   4.068   2.959   0.558  2.8210  1.1057  0.1002
 6304TIP3   OH219340   3.924   4.133   3.291  0.2356  0.0821 -0.2587
 6304TIP3    H119341   3.945   4.204   3.230  0.6168 -0.6936 -1.0461
 6304TIP3    H219342   3.984   4.062   3.267  0.5571 -0.1549  1.1869
 6305TIP3   OH219343   4.464   5.441   3.708  0.3888 -0.1324 -0.2663
 6305TIP3    H119344   4.493   5.459   3.798  0.3190  2.2864 -0.6961
 6305TIP3    H219345   4.373   5.414   3.718  0.2672  0.4876  0.3648
 6306TIP3   OH219346   0.350   3.910   1.273  0.0647  0.1084  0.8273
 6306TIP3    H119347   0.440   3.884   1.251  0.6106  1.3206  1.6325
 6306TIP3    H219348   0.319   3.954   1.194 -0.5500 -2.0736 -0.2129
 6307TIP3   OH219349   4.976   4.969   4.092 -0.7309 -0.2212 -0.6434
 6307TIP3    H119350   5.023   4.977   4.175  0.6721  1.0657 -1.5227
 6307TIP3    H219351   4.970   4.875   4.075 -1.5695 -0.5069  1.2080
 6308TIP3   OH219352   3.776   5.732   0.007 -0.1907 -0.1565  0.0178
 6308TIP3    H119353   3.844   5.679   0.048  0.3307  0.4332 -0.0719
 6308TIP3    H219354   3.761   5.691  -0.078  1.6694  1.0245 -0.9119
 6309TIP3   OH219355   3.253   3.878   3.026  0.0539  0.6246 -0.6063
 6309TIP3    H119356   3.219   3.798   3.066  1.6822  0.3327  0.2330
 6309TIP3    H219357   3.313   3.847   2.958  0.8684  1.1200 -0.1198
 6310TIP3   OH219358   3.541   5.111   3.592 -0.4799 -0.3001 -0.0478
 6310TIP3    H119359   3.458   5.068   3.612  0.0631 -1.1567  0.4012
 6310TIP3    H219360   3.604   5.071   3.652 -0.0346  1.4326  0.6951
 6311TIP3   OH219361   3.954   5.200   1.964  0.3333 -0.0782 -0.2064
 6311TIP3    H119362   4.022   5.143   1.998  1.3360  0.7289 -0.8476
 6311TIP3    H219363   3.932   5.258   2.037  1.3270  0.5758 -0.4161
 6312TIP3   OH219364   3.905   5.304   4.421 -0.7618 -0.5903 -0.1639
 6312TIP3    H119365   3.979   5.283   4.479 -0.7673 -1.6968 -0.5476
 6312TIP3    H219366   3.925   5.258   4.340 -0.3150  1.6630 -1.3758
 6313TIP3   OH219367   4.097   4.157   4.317 -0.3852 -0.2257  0.1956
 6313TIP3    H119368   4.047   4.158   4.399  0.4157 -0.7399  0.7007
 6313TIP3    H219369   4.181   4.198   4.339  0.1655 -1.1588 -0.1451
 6314TIP3   OH219370   3.371   3.406   1.147 -0.1809  0.1775 -0.0164
 6314TIP3    H119371   3.438   3.443   1.090 -1.0375  1.7719 -0.0221
 6314TIP3    H219372   3.377   3.311   1.134  1.0351  0.4074 -1.1607
 6315TIP3   OH219373   2.278   0.334   2.140  0.3273 -0.1367 -0.0284
 6315TIP3    H119374   2.262   0.364   2.229  0.2215 -0.5120  0.0812
 6315TIP3    H219375   2.191   0.307   2.108  0.3531  0.0611 -0.2682
 6316TIP3   OH219376   5.373   4.746   5.179  0.9218  0.0156 -0.5005
 6316TIP3    H119377   5.382   4.810   5.108  0.1363  0.2467 -0.3910
 6316TIP3    H219378   5.311   4.681   5.144  0.3681  0.2439  0.0582
 6317TIP3   OH219379   4.021   4.880   5.010 -0.0014  0.0406 -0.5698
 6317TIP3    H119380   3.999   4.840   5.094  0.8190 -1.6776 -1.1554
 6317TIP3    H219381   4.106   4.922   5.025 -0.1501  0.2710 -0.3721
 6318TIP3   OH219382   0.427   1.804   4.265  0.8522 -0.1089  0.1710
 6318TIP3    H119383   0.404   1.778   4.354 -1.1771 -1.3718 -0.7118
 6318TIP3    H219384   0.362   1.870   4.242  1.7041  0.6160 -0.2048
 6319TIP3   OH219385   5.807   4.964   4.156 -0.1721  0.0512 -0.1334
 6319TIP3    H119386   5.803   4.956   4.251  0.3611 -0.5188 -0.1613
 6319TIP3    H219387   5.821   4.875   4.125  0.4466  0.3490 -0.7048
 6320TIP3   OH219388   2.852   4.683   4.650 -0.2355 -0.4761 -0.1820
 6320TIP3    H119389   2.871   4.697   4.557 -0.7593  0.5146 -0.1417
 6320TIP3    H219390   2.820   4.767   4.681 -1.3348 -1.1763  0.5961
 6321TIP3   OH219391   0.200   0.588   3.813 -0.4782 -0.0120  0.8366
 6321TIP3    H119392   0.260   0.563   3.883  0.0531 -0.5704  0.1770
 6321TIP3    H219393   0.121   0.536   3.829 -0.1553 -0.5393  0.6982
 6322TIP3   OH219394   1.157   5.266   2.861  0.4541 -0.4130  0.0078
 6322TIP3    H119395   1.139   5.172   2.853  0.9819 -0.3956 -1.5712
 6322TIP3    H219396   1.205   5.288   2.782 -0.9128  1.4936 -0.3245
 6323TIP3   OH219397   2.304   2.677   6.009  0.6995  0.4702  0.1551
 6323TIP3    H119398   2.343   2.676   6.097 -0.3121  0.4778  0.6199
 6323TIP3    H219399   2.222   2.726   6.020  1.3949  1.9459 -1.1743
 6324TIP3   OH219400   5.493   3.091   4.937  0.1340  0.0121 -0.0514
 6324TIP3    H119401   5.462   3.030   4.870  1.1956  0.4163 -0.9120
 6324TIP3    H219402   5.496   3.176   4.894  0.4607  0.3497  0.6211
 6325TIP3   OH219403   1.398   4.003   4.497 -0.1673  0.0476  0.6520
 6325TIP3    H119404   1.464   3.951   4.450  0.2141  0.5632  0.6219
 6325TIP3    H219405   1.357   4.057   4.429 -0.2130  0.1607  0.7703
 6326TIP3   OH219406   3.333   5.618   4.615  0.4772  0.1644  0.4319
 6326TIP3    H119407   3.392   5.662   4.676  0.5520  0.5276  0.0998
 6326TIP3    H219408   3.386   5.603   4.537  0.2081  0.2547  0.2287
 6327TIP3   OH219409   2.075   5.269   0.974  0.6399  0.4186 -0.1861
 6327TIP3    H119410   2.160   5.293   1.012  1.6086  0.8979 -2.5683
 6327TIP3    H219411   2.076   5.173   0.973  0.5588  0.3966  1.0638
 6328TIP3   OH219412   5.633   4.024   5.241  0.6703  0.0339 -0.0555
 6328TIP3    H119413   5.590   4.029   5.327 -0.4704 -0.4899 -0.5886
 6328TIP3    H219414   5.603   3.942   5.204  0.4452  0.6944 -1.3461
 6329TIP3   OH219415   1.001   4.616   1.912 -0.4332  0.0576  0.4951
 6329TIP3    H119416   0.943   4.659   1.849  0.6426 -1.6975 -1.7628
 6329TIP3    H219417   0.968   4.527   1.918 -0.5376  0.2054  2.4838
 6330TIP3   OH219418   5.007   5.017   0.480 -0.3286  0.2398  0.2365
 6330TIP3    H119419   5.041   4.944   0.429 -0.0720 -0.1494  0.9608
 6330TIP3    H219420   5.079   5.081   0.480 -0.5011  0.4393 -0.2746
 6331TIP3   OH219421   0.433   0.919   0.619  0.2417 -0.4396 -0.1925
 6331TIP3    H119422   0.344   0.952   0.630  0.2332 -0.4030 -0.3729
 6331TIP3    H219423   0.487   0.997   0.608  0.0468 -0.5232 -1.9282
 6332TIP3   OH219424   1.571   4.499   4.718  0.5100 -0.0148 -0.1428
 6332TIP3    H119425   1.588   4.413   4.758  0.7449  0.5712  1.0294
 6332TIP3    H219426   1.654   4.545   4.724  0.0472  0.7581  0.3779
 6333TIP3   OH219427   5.663   4.265   3.047  0.3466  0.7547 -0.3379
 6333TIP3    H119428   5.694   4.333   3.107  1.7318  0.1044 -0.3186
 6333TIP3    H219429   5.583   4.233   3.088  0.9463  0.7576  0.8502
 6334TIP3   OH219430   1.401   5.909   5.266  0.4085  0.2741  0.0217
 6334TIP3    H119431   1.398   5.904   5.362 -3.5193  0.6236  0.0128
 6334TIP3    H219432   1.452   5.988   5.248  0.2639  0.8269  1.8813
 6335TIP3   OH219433   0.034   1.444   0.421 -0.4500  0.0699  0.2743
 6335TIP3    H119434   0.100   1.508   0.396 -1.4750  0.6847 -0.9496
 6335TIP3    H219435   0.067   1.361   0.386 -1.4916  0.7950 -2.5646
 6336TIP3   OH219436   0.977   4.889   4.398 -0.3327  0.0019  0.7672
 6336TIP3    H119437   0.896   4.909   4.352 -0.2289  1.5852  1.2673
 6336TIP3    H219438   0.957   4.811   4.451 -1.0746 -0.5075 -0.2627
 6337TIP3   OH219439   1.538   4.904   4.198  0.5560 -0.9047 -0.1286
 6337TIP3    H119440   1.606   4.956   4.155  0.6563 -0.9725 -0.0501
 6337TIP3    H219441   1.552   4.918   4.291  0.1840 -0.5545 -0.1203
 6338TIP3   OH219442   1.238   4.848   5.446  0.5098 -0.6111  0.1745
 6338TIP3    H119443   1.317   4.822   5.398  0.5459 -1.3818  0.6389
 6338TIP3    H219444   1.270   4.871   5.534  0.4396  0.7489 -0.1436
 6339TIP3   OH219445   1.916   5.412   4.115 -0.4834 -0.2862 -0.3898
 6339TIP3    H119446   1.831   5.370   4.105 -0.3137 -1.1291  1.5329
 6339TIP3    H219447   1.896   5.506   4.119 -1.2999 -0.4704 -0.0971
 6340TIP3   OH219448   0.297   5.972   5.619  0.1022  0.3773 -0.9948
 6340TIP3    H119449   0.273   5.894   5.670  1.1275  0.2395 -0.7156
 6340TIP3    H219450   0.215   5.999   5.578 -0.4976 -0.1965 -0.2097
 6341TIP3   OH219451   1.969   0.131   3.451  0.2524  0.0241  0.1784
 6341TIP3    H119452   1.924   0.162   3.530 -0.2224  0.1342 -0.1354
 6341TIP3    H219453   2.045   0.084   3.484  0.7005  1.0883  0.6824
 6342TIP3   OH219454   2.403   4.079   2.230  0.6385 -0.0023 -0.1443
 6342TIP3    H119455   2.471   4.058   2.166 -0.1397  0.8216 -1.2586
 6342TIP3    H219456   2.343   4.137   2.183 -0.4653 -0.1684  1.0350
 6343TIP3   OH219457   2.311   4.278   1.502  0.0850  0.1306  0.5957
 6343TIP3    H119458   2.403   4.300   1.497 -0.1043  0.5621 -1.2539
 6343TIP3    H219459   2.271   4.321   1.426 -1.3399 -1.3849  0.4455
 6344TIP3   OH219460   5.188   2.926   3.358 -1.1770 -0.1740  0.1224
 6344TIP3    H119461   5.172   2.979   3.436 -0.8292  0.3635 -0.1726
 6344TIP3    H219462   5.165   2.837   3.385  0.2064 -0.2115  1.2403
 6345TIP3   OH219463   5.295   5.887   4.681 -0.6111  0.5589  0.6978
 6345TIP3    H119464   5.275   5.822   4.615 -0.5648  0.1569  1.0796
 6345TIP3    H219465   5.350   5.841   4.744 -0.9264  0.8482  1.1849
 6346TIP3   OH219466   4.834   4.530   3.050  0.0166  0.1237  0.0694
 6346TIP3    H119467   4.811   4.442   3.081  2.2983 -0.2563  0.8274
 6346TIP3    H219468   4.752   4.567   3.019 -1.4696 -1.3546  2.0685
 6347TIP3   OH219469   5.210   0.457   5.016 -0.1906 -0.0874 -0.0710
 6347TIP3    H119470   5.233   0.387   4.955 -1.6840 -0.5626 -0.1180
 6347TIP3    H219471   5.266   0.442   5.092  2.1222  0.8810 -1.5478
 6348TIP3   OH219472   0.175   5.338   0.360 -0.4241 -0.2011 -0.8187
 6348TIP3    H119473   0.211   5.361   0.446 -0.2930 -0.4652 -0.8045
 6348TIP3    H219474   0.252   5.322   0.305 -0.5193 -0.9202 -0.7470
 6349TIP3   OH219475   0.676   2.140   3.609  0.5420  0.7199  0.4411
 6349TIP3    H119476   0.753   2.156   3.555 -0.8257  0.4033 -1.6813
 6349TIP3    H219477   0.636   2.226   3.621 -0.6759  0.4370 -1.4476
 6350TIP3   OH219478   5.940   2.977   3.636 -0.7491  0.0865  0.0837
 6350TIP3    H119479   5.845   2.971   3.625 -0.5572 -1.1796 -1.0785
 6350TIP3    H219480   5.973   2.892   3.606  0.7904  0.7082 -0.0294
 6351TIP3   OH219481   0.411   5.635   4.919  0.1975 -0.4876 -0.0138
 6351TIP3    H119482   0.478   5.616   4.854  1.4100 -1.3953  1.4804
 6351TIP3    H219483   0.329   5.633   4.870  1.0531 -1.5797 -1.4334
 6352TIP3   OH219484   5.604   0.151   4.513 -0.1006  0.2053 -0.3525
 6352TIP3    H119485   5.518   0.192   4.521  0.2359  0.9562 -0.5613
 6352TIP3    H219486   5.615   0.102   4.594 -0.7453  0.0658 -0.3485
 6353TIP3   OH219487   4.136   5.131   5.038 -0.1488 -0.2236  0.4620
 6353TIP3    H119488   4.071   5.111   4.970 -2.2464 -1.0275  2.5959
 6353TIP3    H219489   4.220   5.122   4.995 -1.3829 -2.2650 -1.6368
 6354TIP3   OH219490   0.714   4.244   5.883  0.1205 -0.5534 -0.2575
 6354TIP3    H119491   0.638   4.244   5.825  0.3713 -0.9883 -0.5863
 6354TIP3    H219492   0.681   4.281   5.965 -0.9570 -2.5832  0.2496
 6355TIP3   OH219493   6.004   3.727   5.981 -0.1581  0.1875  0.1279
 6355TIP3    H119494   6.051   3.699   6.059 -0.9798  0.8459  0.8811
 6355TIP3    H219495   6.072   3.759   5.922  0.3106  1.6729  1.4269
 6356TIP3   OH219496   0.409   3.652   4.106  0.3035  0.4730 -0.3579
 6356TIP3    H119497   0.342   3.718   4.089 -0.0350  0.1866 -0.1342
 6356TIP3    H219498   0.436   3.622   4.019 -0.4687 -0.0255 -0.4337
 6357TIP3   OH219499   4.676   4.744   3.345 -0.2057 -0.3541  0.0434
 6357TIP3    H119500   4.652   4.685   3.416  1.3551 -0.9303  0.1008
 6357TIP3    H219501   4.608   4.732   3.279  0.2984 -2.5013 -0.1160
 6358TIP3   OH219502   0.762   5.527   3.172 -0.1565  0.4124 -0.3671
 6358TIP3    H119503   0.760   5.621   3.152  2.1447  0.2867 -1.3569
 6358TIP3    H219504   0.785   5.524   3.265  0.8461  0.8426 -0.5848
 6359TIP3   OH219505   4.499   5.324   4.772 -0.1645  0.0249  0.1239
 6359TIP3    H119506   4.526   5.232   4.766 -0.1020  0.0346  0.2444
 6359TIP3    H219507   4.503   5.344   4.866  0.8785  0.4588 -0.0045
 6360TIP3   OH219508   5.573   4.893   5.995 -0.0745  0.0229  0.5773
 6360TIP3    H119509   5.554   4.799   6.000  2.3186 -0.5143  0.4156
 6360TIP3    H219510   5.625   4.902   5.914 -0.8509  1.5869  0.2458
 6361TIP3   OH219511   2.418   5.807   3.459  0.0917  0.6075 -0.6444
 6361TIP3    H119512   2.356   5.739   3.432  0.7531  0.2970 -1.4095
 6361TIP3    H219513   2.424   5.798   3.554 -0.4147  0.1045 -0.6577
 6362TIP3   OH219514   5.072   5.503   5.721  0.2903 -0.3153 -0.0301
 6362TIP3    H119515   5.143   5.497   5.786 -0.3736  0.4723  0.7843
 6362TIP3    H219516   5.060   5.597   5.708 -0.4798 -0.4524 -0.3061
 6363TIP3   OH219517   4.965   1.773   4.547  0.4845 -0.2053 -0.4546
 6363TIP3    H119518   4.983   1.790   4.455 -0.8187  1.9757 -0.3517
 6363TIP3    H219519   4.870   1.777   4.554  0.5125 -1.3592  0.8080
 6364TIP3   OH219520   5.458   5.142   6.018 -0.0177 -0.3647 -0.0230
 6364TIP3    H119521   5.412   5.169   5.939  0.0856  0.0009  0.0383
 6364TIP3    H219522   5.494   5.056   5.997 -0.3376 -0.4499 -0.2290
 6365TIP3   OH219523   0.102   3.102   4.202  0.1904 -0.1678  0.1525
 6365TIP3    H119524   0.130   3.072   4.116 -0.1345 -0.7823  0.2582
 6365TIP3    H219525   0.023   3.154   4.184 -0.6796 -1.4389  0.2019
 6366TIP3   OH219526   5.765   2.661   5.534  0.1541 -0.0644 -0.4163
 6366TIP3    H119527   5.774   2.656   5.629 -0.2774  1.8127 -0.2608
 6366TIP3    H219528   5.671   2.673   5.519  0.3283  0.5709 -1.0273
 6367TIP3   OH219529   1.470   4.638   2.898 -0.1389  0.0759 -0.5800
 6367TIP3    H119530   1.498   4.567   2.957 -0.5041 -0.5376 -1.1404
 6367TIP3    H219531   1.538   4.704   2.908  0.6995 -0.7403 -0.7349
 6368TIP3   OH219532   1.919   0.710   4.260  0.0595  0.2338  0.3608
 6368TIP3    H119533   1.912   0.658   4.180 -2.0533 -0.3243  0.8514
 6368TIP3    H219534   1.976   0.658   4.317 -0.6035 -0.6988  0.1945
 6369TIP3   OH219535   0.471   4.682   3.749  0.3008 -0.2825 -0.0600
 6369TIP3    H119536   0.530   4.620   3.791  0.2967  0.2429  0.7283
 6369TIP3    H219537   0.526   4.758   3.729 -0.2692  0.5606  1.4641
 6370TIP3   OH219538   0.434   0.206   4.463  0.1963  0.1436 -0.6915
 6370TIP3    H119539   0.521   0.240   4.484  0.2661  0.4571 -1.4551
 6370TIP3    H219540   0.388   0.282   4.425 -2.4198  1.7278  5.1403
 6371TIP3   OH219541   0.687   0.258   4.563 -0.3494 -0.3651  0.1978
 6371TIP3    H119542   0.748   0.300   4.503  0.0769  1.2315  1.6988
 6371TIP3    H219543   0.726   0.173   4.582  0.3585 -0.1847 -0.4508
 6372TIP3   OH219544   0.740   1.020   3.787  0.6358 -0.1371 -0.1158
 6372TIP3    H119545   0.829   1.003   3.818  0.7642  1.7810  0.6097
 6372TIP3    H219546   0.732   1.115   3.786 -1.2240 -0.2766 -0.7191
 6373TIP3   OH219547   2.734   4.398   5.927 -0.0290 -0.2296  0.2077
 6373TIP3    H119548   2.642   4.374   5.933 -0.1939  0.2303 -0.4247
 6373TIP3    H219549   2.734   4.494   5.924  0.3397 -0.2739 -1.7955
 6374TIP3   OH219550   1.620   3.835   4.390  0.0633  0.1280 -0.1356
 6374TIP3    H119551   1.713   3.855   4.395 -0.0149  1.3674 -3.0090
 6374TIP3    H219552   1.614   3.769   4.321 -1.4316  1.8670 -1.7086
 6375TIP3   OH219553   2.340   0.636   5.689  0.6019 -0.2308 -0.7526
 6375TIP3    H119554   2.345   0.691   5.611 -2.2643  0.3454 -0.6068
 6375TIP3    H219555   2.290   0.559   5.662 -1.8923  0.7395  0.8332
 6376TIP3   OH219556   5.987   5.109   0.668  0.1288 -0.5450 -0.2938
 6376TIP3    H119557   6.031   5.132   0.587  1.2239  1.2134  0.7666
 6376TIP3    H219558   5.913   5.170   0.673 -2.6044 -3.5161 -2.1007
 6377TIP3   OH219559   5.485   0.623   0.247  0.4534  0.2907 -0.1298
 6377TIP3    H119560   5.416   0.605   0.184  0.1417  1.2476 -0.0563
 6377TIP3    H219561   5.448   0.688   0.307  0.5921 -0.9179  1.3009
 6378TIP3   OH219562   5.753   4.393   3.937 -0.5684  0.3557 -0.5413
 6378TIP3    H119563   5.683   4.375   3.874 -0.0683 -0.9025 -0.7486
 6378TIP3    H219564   5.800   4.467   3.899 -1.1196  0.5108 -0.9431
 6379TIP3   OH219565   2.975   5.049   3.337  0.3314 -0.3788 -0.5151
 6379TIP3    H119566   2.927   5.102   3.400 -1.1474 -0.8968 -1.1973
 6379TIP3    H219567   2.937   5.071   3.252  3.3797  1.5328 -1.4791
 6380TIP3   OH219568   3.391   5.153   5.084 -0.1094 -0.1982 -0.5701
 6380TIP3    H119569   3.347   5.074   5.054 -1.4220  0.3631 -0.1826
 6380TIP3    H219570   3.327   5.195   5.142  1.7642 -0.4519  1.7625
 6381TIP3   OH219571   2.088   1.267   3.685 -0.9910 -0.7345 -0.4855
 6381TIP3    H119572   2.184   1.272   3.681 -1.0286 -0.3392 -0.8842
 6381TIP3    H219573   2.068   1.175   3.667 -0.6328 -1.0410  0.6388
 6382TIP3   OH219574   1.563   0.771   4.938 -0.3192  0.2359  0.0238
 6382TIP3    H119575   1.491   0.826   4.970 -0.8030 -1.2041  1.5386
 6382TIP3    H219576   1.621   0.761   5.014  0.0953 -0.7837 -0.4174
 6383TIP3   OH219577   2.279   4.858   0.385  0.0309  0.1299  0.2214
 6383TIP3    H119578   2.186   4.877   0.374  0.3629  1.2842 -0.6882
 6383TIP3    H219579   2.297   4.791   0.318  0.1972  1.0714 -0.6898
 6384TIP3   OH219580   4.432   4.141   3.822  0.1565 -0.0560 -0.0858
 6384TIP3    H119581   4.491   4.135   3.746 -0.8244  0.9186 -0.9437
 6384TIP3    H219582   4.362   4.078   3.803  1.0448 -1.4155  1.0642
 6385TIP3   OH219583   1.805   4.849   5.563  0.0085 -0.3130 -0.0048
 6385TIP3    H119584   1.738   4.918   5.574 -1.8098 -2.2625  1.6208
 6385TIP3    H219585   1.878   4.878   5.618  0.2687  1.4992 -1.2448
 6386TIP3   OH219586   3.990   0.616   5.687 -0.4204 -0.4190 -0.5666
 6386TIP3    H119587   4.051   0.596   5.617 -0.2544  1.7421 -1.0776
 6386TIP3    H219588   4.045   0.628   5.765 -0.3543 -0.2838 -0.6330
 6387TIP3   OH219589   5.184   6.043   4.196 -0.1864 -0.2759  0.9255
 6387TIP3    H119590   5.217   6.109   4.257 -1.5613 -0.4844  1.9178
 6387TIP3    H219591   5.093   6.068   4.181  0.1263 -0.2682 -0.9995
 6388TIP3   OH219592   1.806   4.281   3.944  0.2390 -0.2975 -0.4809
 6388TIP3    H119593   1.782   4.369   3.913  1.6699  0.2285 -0.1546
 6388TIP3    H219594   1.773   4.277   4.033 -1.8793 -0.9689 -1.2640
 6389TIP3   OH219595   1.410   4.653   5.050  0.3126  0.1251  0.1838
 6389TIP3    H119596   1.435   4.667   4.958 -1.6694 -1.9410 -0.7067
 6389TIP3    H219597   1.493   4.636   5.095  1.4480  2.4426 -0.9451
 6390TIP3   OH219598   0.144   5.635   6.077 -0.0719  0.2326  0.3624
 6390TIP3    H119599   0.198   5.683   6.139  1.3697 -0.1077 -0.5940
 6390TIP3    H219600   0.106   5.563   6.128  0.9564  0.0534  0.8989
 6391TIP3   OH219601   5.197   3.189   1.356 -0.0369 -0.1843  0.5398
 6391TIP3    H119602   5.255   3.181   1.280 -0.8772  0.6253 -0.1977
 6391TIP3    H219603   5.237   3.258   1.410 -0.1320  0.1310  0.2065
 6392TIP3   OH219604   2.611   3.891   4.480 -0.1302 -0.5033 -0.5112
 6392TIP3    H119605   2.644   3.806   4.509 -2.7164 -1.3210  0.2289
 6392TIP3    H219606   2.554   3.871   4.406  0.7660  0.8281 -1.5958
 6393TIP3   OH219607   2.163   0.397   5.227 -0.5648 -0.4002  0.8727
 6393TIP3    H119608   2.206   0.454   5.291 -0.3657  0.4359  0.0047
 6393TIP3    H219609   2.071   0.422   5.231 -0.3873  0.4160  0.0638
 6394TIP3   OH219610   2.033   1.914   4.487  0.4058 -0.1314 -0.1575
 6394TIP3    H119611   2.086   1.965   4.549  1.0640 -0.2973 -0.5774
 6394TIP3    H219612   2.096   1.881   4.423 -0.0964 -0.9686 -0.2341
 6395TIP3   OH219613   5.015   5.792   5.324 -0.4088  0.6789 -0.3669
 6395TIP3    H119614   5.048   5.765   5.238 -0.8867 -0.5798 -0.1624
 6395TIP3    H219615   5.051   5.728   5.385 -0.0913  1.5573  0.3795
 6396TIP3   OH219616   3.306   4.168   3.610  0.5583  0.4675  0.1442
 6396TIP3    H119617   3.381   4.146   3.666  1.7539  1.1515 -1.1595
 6396TIP3    H219618   3.338   4.238   3.554 -0.7382  0.0178 -1.1803
 6397TIP3   OH219619   0.740   1.520   5.825  0.2275 -0.3402 -0.2116
 6397TIP3    H119620   0.684   1.476   5.761  0.9310 -1.4701 -0.0670
 6397TIP3    H219621   0.793   1.450   5.863 -0.9419  0.1350  2.4097
 6398TIP3   OH219622   2.938   4.734   2.738  0.5045  0.3812 -0.3615
 6398TIP3    H119623   3.005   4.678   2.699 -1.3795 -1.4149 -1.1435
 6398TIP3    H219624   2.939   4.814   2.685  1.4641  0.0481 -0.8492
 6399TIP3   OH219625   0.927   5.398   0.578 -0.1304  0.2572 -0.1804
 6399TIP3    H119626   1.022   5.386   0.573  0.0935  0.8955  2.0657
 6399TIP3    H219627   0.893   5.313   0.604 -0.1122  0.2324 -0.2360
 6400TIP3   OH219628   2.088   5.275   4.275 -0.3605 -0.1375 -0.2348
 6400TIP3    H119629   2.046   5.328   4.207 -0.1427  0.2647 -0.0589
 6400TIP3    H219630   2.140   5.338   4.326 -0.2588 -0.4881  0.0993
 6401TIP3   OH219631   5.360   2.152   5.659 -0.1644 -0.5148  0.0717
 6401TIP3    H119632   5.308   2.087   5.610  0.5918 -0.4221 -0.8680
 6401TIP3    H219633   5.412   2.100   5.720 -0.2169 -0.7278 -0.0639
 6402TIP3   OH219634   3.024   2.450   4.655  0.4070 -0.0712  0.4269
 6402TIP3    H119635   3.049   2.543   4.655  1.6842 -0.3576 -2.1799
 6402TIP3    H219636   3.009   2.430   4.562 -1.1845 -2.1411  1.1051
 6403TIP3   OH219637   0.064   5.442   5.196 -0.5137  0.1708 -0.0444
 6403TIP3    H119638   0.010   5.515   5.167 -0.4606 -0.0429 -0.6890
 6403TIP3    H219639   0.154   5.473   5.184 -0.4791 -0.3710 -1.3094
 6404TIP3   OH219640   0.439   4.431   5.703 -0.1275  0.3521 -0.3388
 6404TIP3    H119641   0.502   4.469   5.641  0.2785 -0.5696 -0.4935
 6404TIP3    H219642   0.445   4.487   5.780 -1.5228  2.2576 -1.5687
 6405TIP3   OH219643   5.828   4.913   5.364 -0.2466  0.1488 -0.7580
 6405TIP3    H119644   5.889   4.869   5.305 -0.5039 -1.1772 -0.0330
 6405TIP3    H219645   5.773   4.967   5.306 -0.6054 -1.2554 -1.7349
 6406TIP3   OH219646   2.146   0.237   4.122 -0.0145 -0.6282 -0.5936
 6406TIP3    H119647   2.204   0.165   4.145  0.7119 -0.2549 -1.2176
 6406TIP3    H219648   2.172   0.309   4.180  2.6139  0.6872 -3.2817
 6407TIP3   OH219649   1.446   5.072   6.001  0.5797 -0.3938  0.5573
 6407TIP3    H119650   1.520   5.129   5.983  0.2970 -0.3995 -0.6954
 6407TIP3    H219651   1.372   5.114   5.957  0.3579 -1.6659 -0.3229
 6408TIP3   OH219652   3.178   2.977   0.398  0.1378  0.1217 -0.4335
 6408TIP3    H119653   3.191   2.898   0.345  1.2411 -0.2227  0.3019
 6408TIP3    H219654   3.086   2.998   0.389  0.3569  0.2453 -2.7111
 6409TIP3   OH219655   0.165   5.489   4.235 -0.2386 -0.5075 -0.2823
 6409TIP3    H119656   0.092   5.542   4.202 -0.6752 -0.8886  0.0783
 6409TIP3    H219657   0.167   5.412   4.178  0.2983 -0.1927 -0.7045
 6410TIP3   OH219658   4.451   4.115   4.561  0.0512 -0.2379 -0.7724
 6410TIP3    H119659   4.422   4.139   4.648 -1.3644 -3.1093 -0.4015
 6410TIP3    H219660   4.422   4.186   4.505 -1.7986  0.1284  0.6279
 6411TIP3   OH219661   1.248   5.067   4.800 -0.4685  0.6104 -0.4556
 6411TIP3    H119662   1.217   5.013   4.727 -0.1120  1.5129 -1.2935
 6411TIP3    H219663   1.339   5.040   4.813 -0.7867 -0.1418  0.2126
 6412TIP3   OH219664   1.328   1.843   4.080  0.7872 -0.0454 -0.6995
 6412TIP3    H119665   1.265   1.786   4.123  1.5098 -0.6229 -0.3864
 6412TIP3    H219666   1.408   1.833   4.132  0.5177  2.3858  0.2248
 6413TIP3   OH219667   2.394   0.706   3.131  0.0576  0.1785  0.5040
 6413TIP3    H119668   2.300   0.722   3.126 -0.8535 -3.6019  3.3298
 6413TIP3    H219669   2.410   0.637   3.066  0.6511 -0.2009  1.0503
 6414TIP3   OH219670   2.234   4.662   2.867 -0.7906  0.1500  0.6129
 6414TIP3    H119671   2.307   4.689   2.922 -2.1619  1.8380  1.6244
 6414TIP3    H219672   2.208   4.576   2.902  0.8575 -0.5800  0.0742
 6415TIP3   OH219673   1.049   4.521   3.341  0.3505  0.2828 -0.1678
 6415TIP3    H119674   0.966   4.472   3.346  0.1299  0.5397 -1.1020
 6415TIP3    H219675   1.097   4.495   3.419 -1.2590  1.3090  1.2074
 6416TIP3   OH219676   5.704   4.955   0.161  0.1264 -0.0178 -0.2499
 6416TIP3    H119677   5.794   4.986   0.155  0.0529  0.0560 -1.0409
 6416TIP3    H219678   5.678   4.939   0.070 -0.9398  0.7669 -0.0942
 6417TIP3   OH219679   1.897   5.298   5.837 -0.2695 -0.6402  0.2362
 6417TIP3    H119680   1.937   5.304   5.751  2.3607 -1.0927  1.3830
 6417TIP3    H219681   1.854   5.383   5.849 -0.5049 -0.5138 -1.4336
 6418TIP3   OH219682   0.379   0.902   0.195  0.1088 -0.7060 -0.3065
 6418TIP3    H119683   0.464   0.871   0.226 -0.1407 -0.8169  0.2743
 6418TIP3    H219684   0.350   0.964   0.261 -1.1825 -2.1947  0.5553
 6419TIP3   OH219685   3.188   5.908   5.157  0.1591  0.7503 -0.0715
 6419TIP3    H119686   3.237   5.990   5.164  0.9608  0.5050 -2.4161
 6419TIP3    H219687   3.163   5.903   5.065 -0.2908 -1.4114  0.1526
 6420TIP3   OH219688   4.725   5.322   6.048  0.8903  0.0685  0.0697
 6420TIP3    H119689   4.665   5.266   5.998 -1.6593  2.4101  0.3702
 6420TIP3    H219690   4.759   5.384   5.984 -0.8126  1.7864  0.7669
 6421TIP3   OH219691   2.320   4.153   2.768 -0.0915  0.0451  0.3625
 6421TIP3    H119692   2.413   4.175   2.773 -0.0718  0.1006 -0.2638
 6421TIP3    H219693   2.308   4.119   2.680 -1.2231  2.5765 -0.5134
 6422TIP3   OH219694   1.281   0.095   5.703  0.0405  0.7164  0.0836
 6422TIP3    H119695   1.265   0.174   5.651  1.3824  2.3876  2.1521
 6422TIP3    H219696   1.235   0.026   5.655  1.9478  2.0029 -3.8449
 6423TIP3   OH219697   3.204   3.406   3.010 -0.2050  0.1719  0.5237
 6423TIP3    H119698   3.178   3.322   2.974  0.6500 -0.3475  1.0872
 6423TIP3    H219699   3.205   3.392   3.105 -0.9982  1.0942  0.6785
 6424TIP3   OH219700   2.537   5.739   4.511  0.5901 -0.1204 -0.0800
 6424TIP3    H119701   2.628   5.751   4.539  0.1866 -0.3759  1.4287
 6424TIP3    H219702   2.487   5.800   4.566 -0.2672 -0.7940 -0.1057
 6425TIP3   OH219703   3.062   5.321   4.480 -0.5634 -0.5927  0.3493
 6425TIP3    H119704   3.126   5.388   4.456 -1.5617  0.3906  0.3935
 6425TIP3    H219705   3.114   5.253   4.523  0.8052 -0.9401 -1.7604
 6426TIP3   OH219706   3.398   0.296   1.835 -0.0282  0.3786 -0.2062
 6426TIP3    H119707   3.393   0.224   1.773  1.2669  1.4962 -1.6521
 6426TIP3    H219708   3.319   0.288   1.888 -1.0040 -0.7917 -1.7932
 6427TIP3   OH219709   1.050   0.866   0.058  0.1714  0.7261  0.4394
 6427TIP3    H119710   1.000   0.819  -0.009 -1.1585  1.5588  0.8185
 6427TIP3    H219711   1.062   0.803   0.129 -1.1652  0.7927  0.7378
 6428TIP3   OH219712   2.635   4.376   4.373  0.2413  0.6097 -0.2086
 6428TIP3    H119713   2.637   4.305   4.436  0.1988  0.7100 -0.0946
 6428TIP3    H219714   2.719   4.420   4.382 -0.8545  2.3783  1.7931
 6429TIP3   OH219715   1.578   4.141   3.594  0.3212  0.5102  0.2920
 6429TIP3    H119716   1.494   4.185   3.580  0.0735  0.3275  1.2197
 6429TIP3    H219717   1.643   4.204   3.565 -0.1017  0.8866  0.1572
 6430TIP3   OH219718   2.954   3.760   4.625  0.4565 -0.1819  0.8797
 6430TIP3    H119719   2.871   3.779   4.582 -0.0426 -0.6901  1.5854
 6430TIP3    H219720   3.016   3.746   4.554 -0.6475 -2.3144  0.2711
 6431TIP3   OH219721   2.229   4.627   4.612 -0.2759 -0.1999  0.1390
 6431TIP3    H119722   2.257   4.658   4.526  0.2134 -0.8640  0.0494
 6431TIP3    H219723   2.294   4.561   4.636 -0.2509  0.1773  1.1501
 6432TIP3   OH219724   2.597   0.050   0.306  0.3943 -0.9849  0.4474
 6432TIP3    H119725   2.507   0.022   0.327  0.2365 -0.8736 -0.0639
 6432TIP3    H219726   2.641   0.055   0.391  0.1578 -1.8794  0.6271
 6433TIP3   OH219727   3.439   5.883   6.044 -0.2664  0.1437  0.3921
 6433TIP3    H119728   3.524   5.910   6.011 -1.0474  1.1034 -0.8820
 6433TIP3    H219729   3.442   5.901   6.138  0.9285  0.1562  0.3510
 6434TIP3   OH219730   2.057   3.634   2.706  0.5815 -0.0885 -0.2216
 6434TIP3    H119731   2.082   3.725   2.719  3.1538 -1.0021  1.6618
 6434TIP3    H219732   2.129   3.598   2.653  0.2554 -1.3566  0.1967
 6435TIP3   OH219733   0.790   0.842   4.662 -0.3104 -0.6724  0.6377
 6435TIP3    H119734   0.803   0.887   4.745  0.6833  0.5471 -0.1541
 6435TIP3    H219735   0.818   0.906   4.596 -2.0199 -1.2600 -0.6826
 6436TIP3   OH219736   4.696   6.029   4.126 -0.2750  0.5181 -0.3671
 6436TIP3    H119737   4.712   5.960   4.191  1.0633  1.5720  0.4683
 6436TIP3    H219738   4.609   6.062   4.147 -1.3631 -1.5763 -1.4200
 6437TIP3   OH219739   4.368   5.304   5.487  0.3578  0.4721  0.1114
 6437TIP3    H119740   4.416   5.269   5.412 -0.3209  1.1399 -0.6335
 6437TIP3    H219741   4.276   5.303   5.459  0.3011  2.6309  0.1669
 6438TIP3   OH219742   4.156   1.933   5.247 -0.7506  0.9020  0.5282
 6438TIP3    H119743   4.226   1.895   5.300  0.1407  0.4120 -0.9677
 6438TIP3    H219744   4.187   2.021   5.225  0.9856 -0.4699 -2.9258
 6439TIP3   OH219745   2.292   0.697   2.154  0.0147 -0.1456 -0.2271
 6439TIP3    H119746   2.311   0.653   2.072  2.4731 -0.1125  0.3062
 6439TIP3    H219747   2.241   0.774   2.129 -0.1473 -0.6860 -1.6015
 6440TIP3   OH219748   2.602   4.438   5.575 -0.1499  0.0589  0.5657
 6440TIP3    H119749   2.567   4.509   5.629 -0.0576  0.8359 -0.3649
 6440TIP3    H219750   2.539   4.367   5.584 -0.8061  0.6444  0.6857
 6441TIP3   OH219751   2.293   5.013   4.504  0.1505 -0.0048  0.3680
 6441TIP3    H119752   2.379   5.042   4.533  0.0744 -0.9810  1.6145
 6441TIP3    H219753   2.302   5.000   4.410  1.0184  1.0801  0.2901
 6442TIP3   OH219754   0.618   3.369   5.166 -0.1613 -1.3508 -0.1032
 6442TIP3    H119755   0.556   3.336   5.100  1.2326 -1.1580 -1.5365
 6442TIP3    H219756   0.647   3.292   5.213 -1.1085 -1.5050  0.2305
 6443TIP3   OH219757   3.095   4.466   5.314 -0.2178 -0.9838 -0.2082
 6443TIP3    H119758   3.157   4.538   5.323  0.3943 -1.7087  1.8270
 6443TIP3    H219759   3.013   4.507   5.286  0.2276  0.4498  0.5741
 6444TIP3   OH219760   4.083   5.731   1.888  0.0971 -0.0287  0.4506
 6444TIP3    H119761   4.083   5.652   1.835  0.8265  1.2415 -1.4822
 6444TIP3    H219762   4.164   5.726   1.938  0.4086 -0.2402 -0.0687
 6445TIP3   OH219763   3.528   1.964   1.223  0.7838  0.1706  0.9280
 6445TIP3    H119764   3.511   1.915   1.304 -0.4179 -0.6576  0.1847
 6445TIP3    H219765   3.564   1.900   1.163  0.9117  0.6092  0.5361
 6446TIP3   OH219766   6.065   1.602   5.797 -0.3613  0.1948 -0.2386
 6446TIP3    H119767   6.134   1.605   5.863 -2.0281 -0.3656  1.5789
 6446TIP3    H219768   6.051   1.509   5.781 -2.2698  0.2071  1.1462
 6447TIP3   OH219769   3.749   4.585   3.143 -0.1545  0.0032 -0.3068
 6447TIP3    H119770   3.676   4.600   3.203 -0.4255 -0.5427 -0.4892
 6447TIP3    H219771   3.818   4.549   3.197 -0.6346 -1.1316 -0.4302
 6448TIP3   OH219772   1.621   1.340   5.308 -0.2353  0.7030 -0.5361
 6448TIP3    H119773   1.716   1.346   5.305 -0.1333 -0.2171  0.6852
 6448TIP3    H219774   1.603   1.258   5.355 -1.6279  1.9687  1.1894
 6449TIP3   OH219775   2.193   4.058   3.921  0.4914 -0.4251  0.2057
 6449TIP3    H119776   2.105   4.065   3.959  0.2733 -1.8078 -0.0163
 6449TIP3    H219777   2.227   4.148   3.922 -0.6651  0.0150  0.9059
 6450TIP3   OH219778   2.889   1.729   4.755  0.5205  0.5446 -1.0503
 6450TIP3    H119779   2.982   1.745   4.741  0.9003  0.0283  0.7042
 6450TIP3    H219780   2.860   1.802   4.810  0.1571  0.1171 -0.6656
 6451TIP3   OH219781   2.607   4.682   5.285  0.1591  0.2106 -0.5016
 6451TIP3    H119782   2.646   4.719   5.364 -0.2501  0.0599 -0.2253
 6451TIP3    H219783   2.668   4.614   5.257  0.4701  0.4879 -0.5046
 6452TIP3   OH219784   2.916   0.571   1.098 -0.2674 -0.1841 -0.3720
 6452TIP3    H119785   2.910   0.664   1.118  1.4792 -0.2573  0.5935
 6452TIP3    H219786   2.937   0.568   1.005 -1.0044  0.3482 -0.5642
 6453TIP3   OH219787   0.916   1.474   5.526 -0.0399 -0.4394  0.5089
 6453TIP3    H119788   0.967   1.427   5.592  1.7862  0.5730 -0.1237
 6453TIP3    H219789   0.901   1.561   5.564  0.5323 -0.0422 -0.1490
 6454TIP3   OH219790   1.443   2.658   4.232 -0.1772  0.7489 -0.6165
 6454TIP3    H119791   1.401   2.604   4.299  2.1119  0.9727  1.0504
 6454TIP3    H219792   1.427   2.748   4.261  1.6878  0.8360  0.2470
 6455TIP3   OH219793   0.713   0.449   5.881  0.2881 -0.2660  0.1478
 6455TIP3    H119794   0.660   0.438   5.960  1.1554  0.1408  0.7936
 6455TIP3    H219795   0.803   0.459   5.913  0.7549 -0.8800 -0.9304
 6456TIP3   OH219796   1.885   1.333   5.414 -0.5138  0.4722 -0.0557
 6456TIP3    H119797   1.886   1.289   5.498  1.0328  0.5998 -0.0064
 6456TIP3    H219798   1.900   1.426   5.435 -0.8242  0.6033 -0.4087
 6457TIP3   OH219799   2.562   3.033   4.632  0.1008  0.0484 -0.3355
 6457TIP3    H119800   2.480   3.006   4.672  0.5629  0.5525  0.9816
 6457TIP3    H219801   2.573   3.124   4.658  0.6242  0.2474 -1.2548
 6458TIP3   OH219802   2.212   4.343   1.256 -0.3877  0.4225 -0.1705
 6458TIP3    H119803   2.296   4.347   1.210  1.3803 -0.4008  2.8730
 6458TIP3    H219804   2.183   4.434   1.260  1.8265  1.1047  1.3120
 6459TIP3   OH219805   4.439   0.035   4.187 -0.0671 -0.6288  0.3127
 6459TIP3    H119806   4.401   0.114   4.149 -0.8293 -2.1673 -2.2749
 6459TIP3    H219807   4.485   0.065   4.265 -1.1477  2.2105 -0.0918
 6460TIP3   OH219808   0.324   4.375   3.663  0.6039  0.3228 -0.4078
 6460TIP3    H119809   0.281   4.423   3.733  1.6240  0.6882 -0.0157
 6460TIP3    H219810   0.253   4.331   3.617  0.2342 -3.3051  3.3360
 6461TIP3   OH219811   2.803   5.338   5.032 -0.4296 -0.3740 -0.0811
 6461TIP3    H119812   2.870   5.389   5.077 -1.3072  0.3181  0.4605
 6461TIP3    H219813   2.726   5.344   5.089 -1.5353  0.4672 -1.6309
 6462TIP3   OH219814   3.697   5.212   1.281  0.3096  0.2634 -0.0308
 6462TIP3    H119815   3.667   5.213   1.372  0.9777 -1.3347  0.2196
 6462TIP3    H219816   3.707   5.305   1.259 -0.8121  0.6986  1.1937
 6463TIP3   OH219817   2.091   2.505   5.267  0.1418  0.4601 -0.3539
 6463TIP3    H119818   2.051   2.591   5.280 -0.2976 -0.0814  2.2780
 6463TIP3    H219819   2.172   2.508   5.320 -0.2323 -0.9519  0.3350
 6464TIP3   OH219820   5.614   0.215   2.987 -0.3290 -0.2883 -0.1160
 6464TIP3    H119821   5.535   0.218   3.040 -0.6649 -2.2375 -0.4957
 6464TIP3    H219822   5.621   0.124   2.958  0.6469  0.4237 -2.2013
 6465TIP3   OH219823   3.977   5.010   5.461 -0.7435  0.2801 -0.2884
 6465TIP3    H119824   3.923   4.994   5.539 -0.0159 -2.2004 -0.2735
 6465TIP3    H219825   3.928   4.969   5.390 -1.0129  1.8589 -1.0474
 6466TIP3   OH219826   1.676   5.049   5.298 -0.3960 -0.1009  0.3428
 6466TIP3    H119827   1.663   5.024   5.390  1.2493  0.2624  0.6942
 6466TIP3    H219828   1.635   5.135   5.290  0.9105  0.6015  1.1632
 6467TIP3   OH219829   2.708   4.991   5.768  0.2073  0.2646  0.0601
 6467TIP3    H119830   2.737   4.938   5.843  1.5582  0.2160 -0.4934
 6467TIP3    H219831   2.647   5.054   5.807  0.1474 -0.3820  1.0512
 6468TIP3   OH219832   2.160   0.398   5.685  0.3627  0.5202  0.4662
 6468TIP3    H119833   2.129   0.307   5.680  0.3065  0.4501  1.9944
 6468TIP3    H219834   2.085   0.446   5.719  0.7490  0.9563  0.7002
 6469TIP3   OH219835   2.680   1.047   1.415 -0.2713  0.0200  0.2054
 6469TIP3    H119836   2.646   1.040   1.326  0.8997  1.6506 -0.3959
 6469TIP3    H219837   2.711   1.137   1.422  3.1079 -1.1358  0.9935
 6470TIP3   OH219838   4.788   0.711   4.015  0.4424  0.2724  0.0094
 6470TIP3    H119839   4.713   0.769   4.026 -0.0388 -0.5444  1.1576
 6470TIP3    H219840   4.864   0.770   4.011 -0.0045  0.9653  1.5217
 6471TIP3   OH219841   3.532   0.863   4.443  0.1712  0.2519 -0.2240
 6471TIP3    H119842   3.560   0.864   4.534 -1.8868  0.8913  0.4189
 6471TIP3    H219843   3.537   0.771   4.417  0.9599  0.0972  0.4607
 6472TIP3   OH219844   4.452   1.151   5.346 -0.0651  0.1040 -0.1139
 6472TIP3    H119845   4.472   1.223   5.287  0.1033 -1.2567 -1.7412
 6472TIP3    H219846   4.359   1.162   5.367 -0.2966  0.2216 -1.1633
 6473TIP3   OH219847   4.803   3.518   2.751  0.2814 -0.1180  0.4105
 6473TIP3    H119848   4.880   3.530   2.807 -0.8668  2.1278  1.6071
 6473TIP3    H219849   4.772   3.607   2.734  0.9194 -0.6721 -4.3691
 6474TIP3   OH219850   1.912   1.136   4.715 -0.6528  0.0981 -0.2383
 6474TIP3    H119851   1.880   1.046   4.707 -1.1304  0.0724  1.8541
 6474TIP3    H219852   2.006   1.129   4.700 -0.9318 -0.4620 -1.9085
 6475TIP3   OH219853   0.146   4.550   5.585  0.1001  0.0076  0.1186
 6475TIP3    H119854   0.102   4.599   5.516  2.3534  1.1174 -0.5730
 6475TIP3    H219855   0.140   4.458   5.557 -1.1331  0.1962 -0.2846
 6476TIP3   OH219856   4.976   1.036   5.352  0.5772  0.2280 -0.3832
 6476TIP3    H119857   5.013   1.029   5.440  0.7684  1.0433 -0.3893
 6476TIP3    H219858   4.913   1.107   5.359 -1.1749 -1.3111 -0.3258
 6477TIP3   OH219859   0.751   1.610   4.936 -0.0285  0.4039  0.1349
 6477TIP3    H119860   0.806   1.533   4.951 -2.4103 -1.0346  2.1456
 6477TIP3    H219861   0.722   1.602   4.845 -0.1963 -1.0712  0.3080
 6478TIP3   OH219862   0.413   3.217   1.996  0.1932  0.3846 -0.5553
 6478TIP3    H119863   0.333   3.231   1.946 -0.2130 -2.8372 -0.9219
 6478TIP3    H219864   0.469   3.166   1.937  1.5286  0.4422  0.6380
 6479TIP3   OH219865   2.872   1.966   3.927  0.3036 -0.2504 -0.5231
 6479TIP3    H119866   2.882   1.884   3.879  1.6186 -0.0161 -0.6787
 6479TIP3    H219867   2.782   1.994   3.908  0.5338 -0.5791 -2.1883
 6480TIP3   OH219868   4.009   4.698   5.248 -0.2671  0.6257 -0.3472
 6480TIP3    H119869   4.054   4.685   5.331 -0.3900  2.7229  0.0806
 6480TIP3    H219870   4.056   4.642   5.186  3.2572  3.0202 -0.0015
 6481TIP3   OH219871   4.444   0.667   4.188 -0.1288  0.3946  0.3194
 6481TIP3    H119872   4.444   0.750   4.236 -1.0270  0.6379 -0.0971
 6481TIP3    H219873   4.352   0.651   4.167 -0.0079 -0.8696  0.6786
 6482TIP3   OH219874   3.211   4.733   4.306 -0.1435 -0.2603 -0.1838
 6482TIP3    H119875   3.291   4.708   4.352 -0.6964 -1.1954  0.3007
 6482TIP3    H219876   3.238   4.803   4.247  0.5229  1.1885  1.7885
 6483TIP3   OH219877   3.159   5.373   4.930  0.9259  0.3635  0.0838
 6483TIP3    H119878   3.076   5.370   4.977  0.9025 -0.9457 -0.0236
 6483TIP3    H219879   3.216   5.428   4.984  0.4744 -0.0082  0.9449
 6484TIP3   OH219880   4.598   0.132   5.658  0.2372 -0.8505 -1.1498
 6484TIP3    H119881   4.603   0.214   5.608 -3.2973  1.3395  1.8101
 6484TIP3    H219882   4.659   0.145   5.730  1.3553 -1.8030 -1.9091
 6485TIP3   OH219883   5.864   0.180   0.032 -0.2623 -0.3815  0.0895
 6485TIP3    H119884   5.831   0.262   0.068 -0.7167 -1.2674  1.7274
 6485TIP3    H219885   5.804   0.159  -0.039 -0.2080  0.6411 -0.2671
 6486TIP3   OH219886   3.002   0.781   0.394  0.2556 -0.4286  0.1009
 6486TIP3    H119887   2.994   0.853   0.332  0.7318  0.3611  0.9570
 6486TIP3    H219888   3.084   0.738   0.370  0.2845 -0.3100 -0.0117
 6487TIP3   OH219889   3.762   4.270   5.179  0.2565 -0.1365 -0.7146
 6487TIP3    H119890   3.776   4.214   5.256 -0.4270  2.3485  1.3212
 6487TIP3    H219891   3.686   4.323   5.202 -1.6392 -1.2010 -4.2824
 6488TIP3   OH219892   3.089   0.605   0.882 -0.1885 -0.2884 -0.2135
 6488TIP3    H119893   3.126   0.655   0.810 -0.8869  1.0135  0.3100
 6488TIP3    H219894   3.165   0.578   0.934  0.2023  0.3319 -0.4508
 6489TIP3   OH219895   5.395   5.465   4.481  0.2606  0.2635 -0.1627
 6489TIP3    H119896   5.446   5.443   4.403 -0.7952 -0.6618 -0.6049
 6489TIP3    H219897   5.442   5.538   4.521  1.0326  0.4758 -1.4494
 6490TIP3   OH219898   1.919   0.323   3.265  0.0174 -0.4612 -0.3545
 6490TIP3    H119899   1.994   0.382   3.274 -1.2874  1.5193 -2.1849
 6490TIP3    H219900   1.941   0.249   3.322  2.0840  1.3503  1.3162
 6491TIP3   OH219901   2.887   4.377   4.800 -0.4548 -0.6389 -0.0404
 6491TIP3    H119902   2.935   4.442   4.852 -0.7163  0.0218 -0.6239
 6491TIP3    H219903   2.922   4.386   4.712 -0.4638 -1.3295 -0.1228
 6492TIP3   OH219904   4.023   1.858   4.549 -0.2658 -0.0087  0.2173
 6492TIP3    H119905   3.994   1.807   4.474 -0.0815  0.4383 -0.1598
 6492TIP3    H219906   3.949   1.915   4.570 -0.2391  0.0175  0.2409
 6493TIP3   OH219907   5.448   4.820   3.529  0.3529  0.3137  0.4236
 6493TIP3    H119908   5.433   4.725   3.525  1.6943  0.0639  0.9728
 6493TIP3    H219909   5.444   4.848   3.437  2.6898 -0.7449 -0.0627
 6494TIP3   OH219910   3.708   0.832   5.824  0.1658 -0.0137 -0.2204
 6494TIP3    H119911   3.661   0.751   5.847 -1.3528  1.0302  0.4368
 6494TIP3    H219912   3.800   0.810   5.838 -0.2378 -1.5619  0.1889
 6495TIP3   OH219913   3.396   0.689   4.959  0.1602  0.4671  0.5737
 6495TIP3    H119914   3.338   0.620   4.990 -0.1618 -1.3682 -3.6898
 6495TIP3    H219915   3.483   0.649   4.961  0.1687  0.4207 -0.5277
 6496TIP3   OH219916   1.930   3.092   4.694  0.0300  0.0409  0.5501
 6496TIP3    H119917   1.890   3.164   4.644 -1.5015 -0.4720  1.0240
 6496TIP3    H219918   1.926   3.122   4.785 -0.1889 -0.4341  0.6981
 6497TIP3   OH219919   0.523   4.582   4.349 -0.1520 -0.3082 -0.3360
 6497TIP3    H119920   0.533   4.489   4.331  0.5317  0.6523 -5.6620
 6497TIP3    H219921   0.610   4.619   4.334 -0.3778  1.2562  1.8148
 6498TIP3   OH219922   3.217   5.876   3.472  0.1217  0.0678 -0.0743
 6498TIP3    H119923   3.267   5.936   3.528 -2.5548  1.1639  1.1991
 6498TIP3    H219924   3.160   5.829   3.531  0.0852 -1.6711 -1.4417
 6499TIP3   OH219925   4.214   4.739   4.260 -0.1449 -0.3086 -0.0062
 6499TIP3    H119926   4.273   4.670   4.229  2.0470  0.6822  1.8414
 6499TIP3    H219927   4.180   4.706   4.343 -0.4145  0.1110  0.0508
 6500TIP3   OH219928   4.328   0.944   5.901 -0.9085  0.2943  0.0349
 6500TIP3    H119929   4.314   0.851   5.884 -0.2705  0.5539 -1.9186
 6500TIP3    H219930   4.398   0.946   5.966 -1.2147 -0.5960  0.3980
 6501TIP3   OH219931   4.656   4.328   2.794  0.0158  0.1202 -0.5383
 6501TIP3    H119932   4.751   4.337   2.790  0.2162 -1.3366  0.4012
 6501TIP3    H219933   4.625   4.410   2.831  1.0028  0.2173  0.0808
 6502TIP3   OH219934   0.905   5.753   1.463 -0.3121 -0.0013 -0.3668
 6502TIP3    H119935   0.980   5.757   1.522 -0.5939 -0.6532  0.0378
 6502TIP3    H219936   0.943   5.737   1.377  0.0942  0.8783 -0.3552
 6503TIP3   OH219937   5.880   0.698   4.346 -0.2233 -0.9925  0.1305
 6503TIP3    H119938   5.943   0.704   4.274 -2.2074  0.5325 -1.5535
 6503TIP3    H219939   5.848   0.788   4.356 -2.8006 -1.8904  0.2987
 6504TIP3   OH219940   5.917   4.963   4.747 -0.0852  0.1113 -0.0025
 6504TIP3    H119941   5.980   4.938   4.814 -0.5291 -0.6765  0.1263
 6504TIP3    H219942   5.832   4.959   4.791 -0.4353 -0.9471 -0.7458
 6505TIP3   OH219943   0.598   5.683   4.715  0.5274 -0.0085 -0.2070
 6505TIP3    H119944   0.680   5.726   4.692  1.4851 -0.8030  1.5998
 6505TIP3    H219945   0.624   5.594   4.740 -1.1793 -1.0274 -1.9775
 6506TIP3   OH219946   0.594   4.187   4.084 -0.2051  0.3077 -0.1727
 6506TIP3    H119947   0.651   4.114   4.058 -1.2210 -0.7338  0.5249
 6506TIP3    H219948   0.508   4.148   4.095 -0.4665  1.3416  1.6370
 6507TIP3   OH219949   1.496   2.695   2.081  0.3722  0.1493 -0.0362
 6507TIP3    H119950   1.434   2.643   2.132 -1.2587  2.2843  0.2763
 6507TIP3    H219951   1.567   2.635   2.060 -0.3035 -1.5471  2.2864
 6508TIP3   OH219952   3.608   0.575   5.387 -0.4421  0.2702 -0.4961
 6508TIP3    H119953   3.701   0.587   5.406 -0.9036  1.1657  1.3738
 6508TIP3    H219954   3.568   0.658   5.413 -1.6509  0.2457 -2.1931
 6509TIP3   OH219955   5.443   4.469   5.582 -0.2620 -0.1641 -0.3802
 6509TIP3    H119956   5.473   4.433   5.499  2.3116  0.8700  0.0680
 6509TIP3    H219957   5.476   4.407   5.648  0.3343  0.6264  0.0701
 6510TIP3   OH219958   1.111   0.768   2.545  0.2918  0.0394 -0.2917
 6510TIP3    H119959   1.138   0.676   2.550 -1.4843 -0.4731  0.5470
 6510TIP3    H219960   1.030   0.765   2.492  0.5245  1.1876 -0.7119
 6511TIP3   OH219961   2.518   5.336   4.830 -0.0157  0.1509  0.2648
 6511TIP3    H119962   2.491   5.428   4.828 -0.5855  0.0126  1.4568
 6511TIP3    H219963   2.596   5.333   4.773 -0.3727  1.2381 -0.2972
 6512TIP3   OH219964   3.895   1.449   5.033 -0.0638 -0.5408 -0.0639
 6512TIP3    H119965   3.922   1.480   5.120 -0.9463 -0.1247  0.0696
 6512TIP3    H219966   3.820   1.392   5.050  0.0403 -0.8136 -0.5171
 6513TIP3   OH219967   5.149   1.457   3.986 -0.1115 -0.2080 -0.8944
 6513TIP3    H119968   5.191   1.538   4.016 -1.7274  0.5367 -0.6036
 6513TIP3    H219969   5.180   1.390   4.048  2.4866 -0.1502 -2.0777
 6514TIP3   OH219970   2.551   5.914   0.892  0.6784 -0.6568 -0.2602
 6514TIP3    H119971   2.529   5.906   0.985  0.2686  0.0514 -0.2907
 6514TIP3    H219972   2.467   5.906   0.846  0.4725  1.7433 -0.3955
 6515TIP3   OH219973   2.803   4.221   5.313 -0.4906  0.0488 -0.0957
 6515TIP3    H119974   2.763   4.190   5.394 -2.8733  0.3034 -1.1049
 6515TIP3    H219975   2.803   4.144   5.255  0.4496  0.0650 -0.1196
 6516TIP3   OH219976   1.511   1.416   0.170 -0.2839  0.1315 -0.4861
 6516TIP3    H119977   1.574   1.487   0.159 -0.3780  0.5275  1.2456
 6516TIP3    H219978   1.446   1.430   0.101 -0.3071  1.7537 -0.1614
 6517TIP3   OH219979   1.699   2.062   5.576 -0.2514  0.0230  0.5712
 6517TIP3    H119980   1.631   2.122   5.605 -1.8438 -0.9107 -1.1157
 6517TIP3    H219981   1.652   1.986   5.541  1.6280 -0.6335 -0.6761
 6518TIP3   OH219982   2.521   5.892   5.389  0.2788  0.7052 -0.2206
 6518TIP3    H119983   2.463   5.876   5.463  1.2480  1.3719  0.7061
 6518TIP3    H219984   2.489   5.973   5.350  0.2177  0.7572 -0.0633
 6519TIP3   OH219985   3.911   5.886   4.779  0.0291  0.0103 -0.2527
 6519TIP3    H119986   3.959   5.870   4.698 -0.6819  0.4510 -0.7714
 6519TIP3    H219987   3.835   5.937   4.751 -1.4347 -1.8072  0.3422
 6520TIP3   OH219988   4.900   0.944   4.755  0.5875 -0.1714  0.6904
 6520TIP3    H119989   4.985   0.923   4.716  1.1231  0.6633  1.3615
 6520TIP3    H219990   4.919   0.952   4.849 -0.2864 -0.2334  0.8749
 6521TIP3   OH219991   4.363   1.771   5.082 -0.4523 -0.1352 -0.0709
 6521TIP3    H119992   4.423   1.730   5.020 -1.5591 -1.2248 -0.4530
 6521TIP3    H219993   4.389   1.737   5.167 -0.8593 -1.0196 -0.2957
 6522TIP3   OH219994   0.062   0.916   6.025  0.5991  0.0100 -0.4788
 6522TIP3    H119995   0.110   0.893   5.945  0.5226 -0.8334 -0.2882
 6522TIP3    H219996  -0.012   0.968   5.995 -0.9410 -2.5241 -1.2464
 6523TIP3   OH219997   0.893   5.919   3.792 -0.2427 -0.2697  0.0586
 6523TIP3    H119998   0.818   5.921   3.731 -0.0644  3.9284 -0.1646
 6523TIP3    H219999   0.882   5.997   3.846  4.0243  0.4693 -0.0038
 6524TIP3   OH220000   0.850   0.053   3.925 -0.4557  0.3914 -0.2391
 6524TIP3    H120001   0.890   0.127   3.878 -0.0713 -0.1953 -0.8568
 6524TIP3    H220002   0.873   0.068   4.016  0.8587  0.2768 -0.5335
 6525TIP3   OH220003   1.908   4.921   0.462  0.1551 -0.8774  0.4758
 6525TIP3    H120004   1.966   4.994   0.441 -0.0785 -0.1622  2.2849
 6525TIP3    H220005   1.908   4.868   0.382  0.9505  0.6665 -0.5909
 6526TIP3   OH220006   4.967   0.587   4.906  0.7430  0.3508 -0.3038
 6526TIP3    H120007   5.035   0.520   4.903 -0.4762 -0.9125 -0.3448
 6526TIP3    H220008   5.011   0.665   4.941  1.8061 -0.9307  1.2898
 6527TIP3   OH220009   5.727   1.236   4.490  0.0628 -0.2508  0.5316
 6527TIP3    H120010   5.787   1.228   4.415 -0.7315 -0.4621 -0.0878
 6527TIP3    H220011   5.785   1.235   4.566  0.9347  0.5851 -0.1004
 6528TIP3   OH220012   3.231   1.735   5.001  0.3373  0.8800 -0.3877
 6528TIP3    H120013   3.297   1.695   5.058  1.6787  1.8086 -1.2361
 6528TIP3    H220014   3.176   1.786   5.060 -1.0519 -1.7314  0.6274
 6529TIP3   OH220015   4.114   0.099   3.654  0.4011  0.1411  0.2971
 6529TIP3    H120016   4.042   0.143   3.699 -1.2273 -1.5954 -0.5555
 6529TIP3    H220017   4.189   0.110   3.713 -0.3447  2.6392  0.8393
 6530TIP3   OH220018   5.257   0.433   3.622 -0.1626 -0.0624 -0.2846
 6530TIP3    H120019   5.221   0.473   3.701  0.2488 -1.5187  0.6427
 6530TIP3    H220020   5.285   0.508   3.568  1.0044  0.8971  1.6242
 6531TIP3   OH220021   5.804   1.161   3.628 -0.1123 -0.0863 -0.0369
 6531TIP3    H120022   5.807   1.228   3.560 -1.7157 -0.1407 -0.1819
 6531TIP3    H220023   5.893   1.157   3.661  0.7876 -0.2978 -2.3757
 6532TIP3   OH220024   4.628   0.454   4.263 -0.2919  0.1202 -0.4221
 6532TIP3    H120025   4.585   0.523   4.214 -1.4556  0.9903  1.7591
 6532TIP3    H220026   4.616   0.478   4.355  0.7492 -2.0892  0.3388
 6533TIP3   OH220027   1.456   5.179   4.332 -0.1150  0.3126  0.1671
 6533TIP3    H120028   1.527   5.243   4.323  1.2451 -1.2206 -0.3064
 6533TIP3    H220029   1.434   5.182   4.425  1.8856 -0.5341  0.6965
 6534TIP3   OH220030   5.585   4.321   5.750 -0.2755 -0.3270  0.3726
 6534TIP3    H120031   5.640   4.243   5.748  1.0792  0.6161 -0.5770
 6534TIP3    H220032   5.571   4.338   5.843 -1.6805 -2.4208  0.5812
 6535TIP3   OH220033   2.510   2.330   5.463  0.1996  0.1079 -0.0580
 6535TIP3    H120034   2.546   2.357   5.378  1.2123 -0.9422  0.0326
 6535TIP3    H220035   2.586   2.322   5.520 -0.6361  2.8673  1.5650
 6536TIP3   OH220036   2.783   5.171   2.395 -0.3663  0.1562  0.5791
 6536TIP3    H120037   2.792   5.169   2.490  0.7930  1.6135  0.5173
 6536TIP3    H220038   2.865   5.132   2.362 -0.5785  0.0394  0.1852
 6537TIP3   OH220039   2.079   1.950   5.344  0.3215  0.2662 -0.1013
 6537TIP3    H120040   2.017   2.005   5.392  0.0974 -0.1835  0.1217
 6537TIP3    H220041   2.157   2.005   5.334  1.2828 -0.4612  2.8998
 6538TIP3   OH220042   0.333   5.992   2.803 -0.2129 -0.3660  0.1024
 6538TIP3    H120043   0.371   5.912   2.839  0.1932 -0.1690  0.1147
 6538TIP3    H220044   0.399   6.024   2.741 -1.3653 -1.3074 -1.6651
 6539TIP3   OH220045   1.295   1.778   0.290 -0.5882 -0.0073  0.2409
 6539TIP3    H120046   1.226   1.764   0.225 -1.2806  0.4293  0.8748
 6539TIP3    H220047   1.300   1.695   0.337 -1.9079  0.5158  1.3480
 6540TIP3   OH220048   0.370   0.916   5.060 -0.4741 -0.2382 -0.5644
 6540TIP3    H120049   0.399   0.831   5.027  1.8870 -0.4117  1.8438
 6540TIP3    H220050   0.384   0.912   5.154 -2.1058  2.1611 -0.1754
 6541TIP3   OH220051   0.958   3.256   0.655  0.2983 -0.0464 -0.4448
 6541TIP3    H120052   1.033   3.305   0.621  0.8454  0.2180  1.1060
 6541TIP3    H220053   0.887   3.275   0.594  1.2401  0.4559 -1.4028
 6542TIP3   OH220054   0.633   0.060   0.189  0.1820 -0.2201  0.1645
 6542TIP3    H120055   0.603  -0.020   0.146 -0.3016 -0.8551  1.6508
 6542TIP3    H220056   0.728   0.053   0.190  0.1289 -0.9387  0.5714
 6543TIP3   OH220057   5.808   0.624   0.982  0.0450  0.5567 -0.1311
 6543TIP3    H120058   5.735   0.680   0.957 -0.0407  0.2241 -0.6294
 6543TIP3    H220059   5.878   0.647   0.921  0.4646  1.1096  0.5547
 6544TIP3   OH220060   4.465   3.150   1.349 -0.0819 -0.6879  0.4390
 6544TIP3    H120061   4.524   3.087   1.390  0.1117 -1.9288 -1.7068
 6544TIP3    H220062   4.396   3.097   1.309  1.4376  0.1798 -3.6309
 6545TIP3   OH220063   5.546   1.578   5.399 -0.2487  0.4058  0.0177
 6545TIP3    H120064   5.461   1.563   5.440  0.0766 -1.1142  0.1424
 6545TIP3    H220065   5.532   1.559   5.306  0.7820 -3.2946  0.5621
 6546TIP3   OH220066   5.717   3.105   3.920 -0.0838 -0.1801  0.4215
 6546TIP3    H120067   5.648   3.040   3.931 -1.6885  1.4867  0.5101
 6546TIP3    H220068   5.700   3.144   3.835  1.7417 -0.8425 -0.2824
 6547TIP3   OH220069   1.454   0.108   1.459  0.1256  0.8045  0.3147
 6547TIP3    H120070   1.415   0.098   1.372 -0.0537 -0.7664  0.5544
 6547TIP3    H220071   1.386   0.151   1.511 -0.6789 -0.4008  0.2877
 6548TIP3   OH220072   1.062   4.748   5.720 -0.1542  0.0025  0.2443
 6548TIP3    H120073   0.991   4.787   5.670 -1.7671 -0.7513  1.9127
 6548TIP3    H220074   1.023   4.672   5.763  2.1572 -1.6587 -0.4600
 6549TIP3   OH220075   1.884   1.316   5.895  0.3411 -0.4395 -0.1871
 6549TIP3    H120076   1.925   1.249   5.950 -1.7718 -1.1697  0.5487
 6549TIP3    H220077   1.893   1.282   5.806 -0.3628 -1.5114  0.1446
 6550TIP3   OH220078   5.766   1.699   1.061  0.1451 -0.5048 -0.1206
 6550TIP3    H120079   5.787   1.681   0.970 -1.4472  1.5282 -0.9234
 6550TIP3    H220080   5.766   1.613   1.103  0.2409 -1.5309 -2.1787
 6551TIP3   OH220081   0.943   1.260   5.296 -0.2461 -0.0791 -0.1165
 6551TIP3    H120082   0.959   1.310   5.375 -2.0501  0.6974 -0.2103
 6551TIP3    H220083   0.943   1.169   5.324 -0.0835  0.1517  0.6264
 6552TIP3   OH220084   1.875   2.107   1.166 -0.3508  0.1592 -0.2211
 6552TIP3    H120085   1.924   2.110   1.084 -1.6325  2.8658 -0.9438
 6552TIP3    H220086   1.859   2.013   1.181  1.4653 -0.4806 -2.0816
 6553TIP3   OH220087   3.790   0.253   4.957  0.0859  0.1815  0.0108
 6553TIP3    H120088   3.818   0.344   4.957  0.9973 -0.0902 -0.0992
 6553TIP3    H220089   3.821   0.218   5.040  1.2060 -0.4592 -0.6682
 6554TIP3   OH220090   5.870   2.077   1.723  0.2014  0.2298 -0.1267
 6554TIP3    H120091   5.929   2.033   1.785  1.1245 -0.6851 -1.6198
 6554TIP3    H220092   5.859   2.013   1.652 -1.6885  0.8473 -0.4106
 6555TIP3   OH220093   0.237   3.535   6.005 -0.3124  0.3789 -0.0648
 6555TIP3    H120094   0.316   3.558   5.957 -1.7227  1.2273 -2.0651
 6555TIP3    H220095   0.208   3.453   5.966 -0.2842 -0.0447  0.8093
 6556TIP3   OH220096   1.566   2.694   4.788  0.0116  0.3079  0.4582
 6556TIP3    H120097   1.610   2.758   4.843 -0.3579 -0.4467  1.6598
 6556TIP3    H220098   1.575   2.728   4.699  0.0130  1.9007  1.0504
 6557TIP3   OH220099   0.235   5.772   0.225 -0.0013  0.6608  0.2699
 6557TIP3    H120100   0.191   5.841   0.275 -0.6235  0.0175  0.6174
 6557TIP3    H220101   0.311   5.748   0.279  0.1858  1.0304  0.1738
 6558TIP3   OH220102   2.055   2.562   0.058  0.3290 -0.0501  0.9072
 6558TIP3    H120103   1.982   2.500   0.060  2.7873 -3.0402  0.5050
 6558TIP3    H220104   2.058   2.594  -0.032  0.1225 -0.6508  0.6901
 6559TIP3   OH220105   0.404   1.360   5.465  0.0402 -0.7898  0.3887
 6559TIP3    H120106   0.334   1.411   5.507  1.0600  0.9084  0.0892
 6559TIP3    H220107   0.389   1.371   5.372  0.7814 -0.2685  0.3204
 6560TIP3   OH220108   3.192   5.412   1.819 -0.5526 -0.4840  0.5529
 6560TIP3    H120109   3.160   5.501   1.804 -1.7192 -0.9296  0.3751
 6560TIP3    H220110   3.122   5.368   1.867 -0.9419 -1.9486 -1.2544
 6561TIP3   OH220111   0.713   0.918   0.909 -0.3073 -0.0851  0.0830
 6561TIP3    H120112   0.773   0.953   0.843  0.9417 -1.2343  0.5904
 6561TIP3    H220113   0.769   0.868   0.968 -1.4833  0.4926  1.7170
 6562TIP3   OH220114   1.213   2.945   0.498  0.1290  0.4937 -0.4916
 6562TIP3    H120115   1.187   3.020   0.445  1.6154  1.3473 -0.0603
 6562TIP3    H220116   1.245   2.983   0.579 -1.9093 -0.7906  0.9477
 6563TIP3   OH220117   4.720   0.853   0.082 -0.1562 -0.3915  0.1684
 6563TIP3    H120118   4.711   0.759   0.094  0.4616 -0.4325  0.3102
 6563TIP3    H220119   4.812   0.871   0.100 -0.3095  0.2635  0.3097
 6564TIP3   OH220120   0.099   0.432   4.628 -0.2400 -0.5661  0.0261
 6564TIP3    H120121   0.104   0.398   4.717 -0.7301  1.5576  0.8948
 6564TIP3    H220122   0.111   0.526   4.638 -0.9289 -0.2362 -2.0987
 6565TIP3   OH220123   0.168   4.906   2.477  0.1983  0.2319 -0.5376
 6565TIP3    H120124   0.135   4.918   2.566  1.6530 -1.4983  0.2677
 6565TIP3    H220125   0.146   4.816   2.456  2.8972 -0.4678 -0.5793
 6566TIP3   OH220126   0.771   0.961   0.494  0.4442 -0.6419 -0.0286
 6566TIP3    H120127   0.725   1.000   0.568  0.9119 -0.5442  0.2113
 6566TIP3    H220128   0.701   0.929   0.437  0.0293  1.0849 -0.5333
 6567TIP3   OH220129   1.166   2.612   1.463 -0.1324  0.0278 -0.5953
 6567TIP3    H120130   1.247   2.570   1.436  0.4156  0.5332  0.2148
 6567TIP3    H220131   1.111   2.541   1.495 -0.4043 -0.4422 -2.0598
 6568TIP3   OH220132   4.220   0.153   5.373 -0.1011  0.0775 -0.1595
 6568TIP3    H120133   4.173   0.111   5.301 -0.8709 -1.1950  1.0681
 6568TIP3    H220134   4.286   0.088   5.400 -0.4717  0.1476  0.9291
 6569TIP3   OH220135   1.431   3.241   0.198 -0.0024  0.4897 -0.0969
 6569TIP3    H120136   1.478   3.232   0.281  1.4819 -0.6082 -1.0455
 6569TIP3    H220137   1.364   3.172   0.201  0.6004 -0.0974 -0.1876
 6570TIP3   OH220138   0.722   0.697   0.748  0.3080  0.3314 -0.3360
 6570TIP3    H120139   0.633   0.678   0.717 -1.0285 -0.2121  3.5472
 6570TIP3    H220140   0.713   0.776   0.802  2.4897  1.1243 -1.0435
 6571TIP3   OH220141   4.734   0.485   4.748 -0.6349 -0.1108  0.1080
 6571TIP3    H120142   4.683   0.445   4.819  0.0213  0.5885  0.9847
 6571TIP3    H220143   4.817   0.511   4.789  0.0538 -0.3679 -1.0801
 6572TIP3   OH220144   0.850   1.447   1.343  0.6966  0.2387 -0.0123
 6572TIP3    H120145   0.878   1.512   1.408  2.4537 -2.2438  1.7998
 6572TIP3    H220146   0.886   1.478   1.260 -3.5253  4.7213 -0.4149
 6573TIP3   OH220147   1.369   2.135   1.754 -0.2704 -0.5413 -0.6569
 6573TIP3    H120148   1.464   2.125   1.751 -0.2611 -0.0779 -2.7502
 6573TIP3    H220149   1.338   2.055   1.796  1.1411  0.1280  1.7988
 6574TIP3   OH220150   4.117   3.735   5.327 -0.2051  0.0220 -0.1213
 6574TIP3    H120151   4.037   3.784   5.309  0.4734  1.1248 -0.1772
 6574TIP3    H220152   4.154   3.715   5.241  0.0812  0.3687 -0.0835
 6575TIP3   OH220153   1.478   3.339   1.360  0.9543 -0.1067 -0.2801
 6575TIP3    H120154   1.555   3.283   1.370  1.6718  0.7499 -1.0178
 6575TIP3    H220155   1.407   3.278   1.342  1.7641 -0.7705 -1.2545
 6576TIP3   OH220156   1.791   4.439   4.922 -0.0824  0.1740  0.0646
 6576TIP3    H120157   1.854   4.473   4.985 -0.0293  1.0199 -0.4401
 6576TIP3    H220158   1.706   4.451   4.963 -0.0028  0.1100  0.2496
 6577TIP3   OH220159   0.481   0.705   4.247 -0.1489 -0.3539 -0.3562
 6577TIP3    H120160   0.455   0.784   4.294 -0.8177 -0.3347 -0.7524
 6577TIP3    H220161   0.450   0.719   4.157  0.1741 -0.8449 -0.5467
 6578TIP3   OH220162   3.111   1.613   1.652  0.2544  0.2092  0.3370
 6578TIP3    H120163   3.081   1.556   1.722 -0.9320 -1.3655 -1.4112
 6578TIP3    H220164   3.207   1.608   1.657  0.1704 -1.5078  0.5771
 6579TIP3   OH220165   1.974   4.462   4.530 -0.1934 -0.5529 -0.1341
 6579TIP3    H120166   1.978   4.390   4.593  2.2164  0.5736  1.1127
 6579TIP3    H220167   2.037   4.526   4.564 -1.7402  1.8230 -1.5864
 6580TIP3   OH220168   5.384   0.070   5.084 -0.0753 -0.1846  0.1685
 6580TIP3    H120169   5.341   0.138   5.032 -2.1141 -1.0245  0.7242
 6580TIP3    H220170   5.432   0.018   5.020  1.8783  1.9883 -0.2266
 6581TIP3   OH220171   0.158   5.670   4.811  0.1867  0.4239  0.3554
 6581TIP3    H120172   0.128   5.628   4.730 -0.1393  0.4259  0.4783
 6581TIP3    H220173   0.125   5.759   4.806  2.7723  1.3797 -0.9818
 6582TIP3   OH220174   0.730   1.568   0.500  0.0679 -0.1838 -0.3604
 6582TIP3    H120175   0.716   1.526   0.415  2.8222 -0.5428 -0.7052
 6582TIP3    H220176   0.809   1.526   0.534 -0.6522  0.4045  2.1050
 6583TIP3   OH220177   4.390   0.321   5.560 -0.1394  0.2888  0.4690
 6583TIP3    H120178   4.332   0.396   5.550 -0.2304 -0.0048 -1.4797
 6583TIP3    H220179   4.426   0.307   5.472  2.1264 -0.1450  1.4326
 6584TIP3   OH220180   4.952   1.505   4.375 -0.2747 -0.7589 -0.3575
 6584TIP3    H120181   4.898   1.509   4.454  0.7774 -3.2787  0.5408
 6584TIP3    H220182   4.930   1.421   4.335 -0.1541  0.1038 -2.3270
 6585TIP3   OH220183   0.294   1.589   3.072  0.0116 -0.0251 -0.0713
 6585TIP3    H120184   0.246   1.556   2.996 -0.4818 -1.1776  0.7320
 6585TIP3    H220185   0.354   1.518   3.095  0.8111  0.6844  0.0547
 6586TIP3   OH220186   5.433   2.112   5.258 -0.1615 -0.5161 -0.1989
 6586TIP3    H120187   5.455   2.042   5.196 -1.1310 -0.5647 -0.4954
 6586TIP3    H220188   5.430   2.068   5.343  0.9689 -0.4886 -0.1356
 6587TIP3   OH220189   5.808   2.588   0.342 -0.5620  0.1310  0.6165
 6587TIP3    H120190   5.784   2.496   0.356  1.0475 -0.4728 -0.5018
 6587TIP3    H220191   5.888   2.600   0.392 -0.7491  0.9254  0.7303
 6588TIP3   OH220192   4.307   1.229   6.013  0.4966 -0.1660 -0.8008
 6588TIP3    H120193   4.212   1.230   6.023  0.5715  1.8181 -0.1671
 6588TIP3    H220194   4.324   1.156   5.954 -1.4320 -0.4764 -0.9928
 6589TIP3   OH220195   1.552   1.081   3.531  0.3664  0.7464  0.1356
 6589TIP3    H120196   1.477   1.086   3.590 -0.6530 -1.3639 -0.9253
 6589TIP3    H220197   1.585   1.170   3.526 -0.2001  1.1652  3.0131
 6590TIP3   OH220198   4.583   2.222   5.652 -0.1302 -0.1916 -0.0730
 6590TIP3    H120199   4.493   2.237   5.681  0.1279  1.5946 -0.1653
 6590TIP3    H220200   4.580   2.136   5.610 -1.4599 -0.8240  1.2728
 6591TIP3   OH220201   2.602   5.675   0.716 -0.3969 -0.2294  0.0555
 6591TIP3    H120202   2.512   5.688   0.746 -0.0022  2.3130  0.2610
 6591TIP3    H220203   2.641   5.617   0.782 -1.2670  0.4123  1.1524
 6592TIP3   OH220204   4.642   2.380   5.438 -0.1332  0.0507 -0.1718
 6592TIP3    H120205   4.731   2.412   5.451 -0.4425  0.6134  0.6036
 6592TIP3    H220206   4.630   2.316   5.508 -0.5896  0.5165  0.1811
 6593TIP3   OH220207   2.261   1.329   1.243 -0.6450  0.1294 -0.7757
 6593TIP3    H120208   2.193   1.395   1.237 -1.0804  0.1440  2.7797
 6593TIP3    H220209   2.330   1.371   1.296  0.1293 -1.3960 -0.5464
 6594TIP3   OH220210   3.062   2.914   5.461 -0.2929 -0.1298 -0.1454
 6594TIP3    H120211   3.123   2.844   5.440  0.7683  0.2361  1.6186
 6594TIP3    H220212   3.117   2.992   5.470 -1.3640  0.7957 -1.2863
 6595TIP3   OH220213   1.284   0.966   0.715 -0.0678  0.1971  0.5443
 6595TIP3    H120214   1.282   1.058   0.689 -4.6567  0.4460  1.3054
 6595TIP3    H220215   1.230   0.962   0.794 -1.7630 -3.4549 -0.6760
 6596TIP3   OH220216   1.830   1.485   4.141 -0.3865 -0.2917 -0.2206
 6596TIP3    H120217   1.850   1.525   4.226 -1.6054 -0.3146  0.0820
 6596TIP3    H220218   1.751   1.434   4.157 -0.1132 -1.0072 -1.1610
 6597TIP3   OH220219   2.929   1.836   1.052  0.1051  0.1886 -0.3960
 6597TIP3    H120220   2.917   1.930   1.062  1.1910  0.3376 -0.4443
 6597TIP3    H220221   2.987   1.811   1.124  0.9911 -0.1952 -1.2380
 6598TIP3   OH220222   2.026   5.013   4.269 -0.4970 -0.3752  0.2391
 6598TIP3    H120223   2.023   5.108   4.276 -0.2342 -0.3156 -0.4338
 6598TIP3    H220224   2.105   4.994   4.218 -1.9589 -0.8050 -1.9316
 6599TIP3   OH220225   5.505   5.798   1.619  0.4771  0.3901  0.4566
 6599TIP3    H120226   5.505   5.806   1.714 -0.8906 -0.9808  0.5885
 6599TIP3    H220227   5.420   5.759   1.598  0.9979  0.1484 -1.2771
 6600TIP3   OH220228   4.208   5.948   2.380 -0.1607  0.3911 -0.4799
 6600TIP3    H120229   4.193   5.998   2.460  0.7831  1.7988 -1.1586
 6600TIP3    H220230   4.276   5.997   2.334 -0.6484 -0.4386 -2.1111
 6601TIP3   OH220231   1.041   2.054   0.654  0.5238  0.1355  0.1633
 6601TIP3    H120232   1.118   2.046   0.597 -1.3260  0.2838 -2.4519
 6601TIP3    H220233   1.055   2.137   0.701  1.2701  0.9081 -1.3856
 6602TIP3   OH220234   5.188   4.714   0.525  0.3075  0.3134 -0.2879
 6602TIP3    H120235   5.251   4.671   0.467 -0.0091  0.8398 -1.0344
 6602TIP3    H220236   5.237   4.785   0.566  0.7609 -0.5844  0.7467
 6603TIP3   OH220237   0.777   0.904   3.092 -0.4689 -0.2267 -0.7042
 6603TIP3    H120238   0.769   0.817   3.132  0.7439 -0.2287 -0.4397
 6603TIP3    H220239   0.696   0.916   3.043 -0.6333 -1.5158 -0.7552
 6604TIP3   OH220240   3.823   1.330   5.383  0.1885 -0.1592  0.0390
 6604TIP3    H120241   3.873   1.299   5.459 -0.8719 -0.7296  0.5157
 6604TIP3    H220242   3.862   1.415   5.362  1.2565 -0.5280  0.4921
 6605TIP3   OH220243   3.677   5.031   5.813  0.2644  0.4015 -0.3624
 6605TIP3    H120244   3.583   5.026   5.797  0.4732  0.5482 -1.7491
 6605TIP3    H220245   3.691   5.118   5.849 -0.2769 -0.0453  0.9304
 6606TIP3   OH220246   3.810   0.666   0.985 -0.0844  0.2607 -0.8566
 6606TIP3    H120247   3.781   0.599   0.924  1.5883 -0.2595 -1.1131
 6606TIP3    H220248   3.897   0.691   0.954 -0.9749  3.1120 -1.2241
 6607TIP3   OH220249   2.114   0.732   5.357 -0.2383  0.3770  0.0724
 6607TIP3    H120250   2.070   0.790   5.419 -1.3031 -2.3642  1.9331
 6607TIP3    H220251   2.044   0.681   5.317  0.9025 -1.5269  0.4416
 6608TIP3   OH220252   3.400   2.393   5.640 -0.0647 -0.0315  0.0161
 6608TIP3    H120253   3.326   2.432   5.686 -1.4650 -2.5949  0.0134
 6608TIP3    H220254   3.424   2.459   5.574 -2.3199  0.8615  0.0203
 6609TIP3   OH220255   0.915   2.343   3.833  0.1654 -0.4413  0.0826
 6609TIP3    H120256   0.834   2.303   3.865  0.4038  0.2234  1.5687
 6609TIP3    H220257   0.984   2.295   3.877  0.8246 -3.6338 -4.0964
 6610TIP3   OH220258   3.365   4.417   5.654  0.0359  0.3132 -0.1672
 6610TIP3    H120259   3.337   4.349   5.715  1.2438  0.0331  0.0800
 6610TIP3    H220260   3.410   4.370   5.584  0.7779  0.8258 -0.0476
 6611TIP3   OH220261   2.852   2.920   0.102 -0.1316  0.0355 -0.0461
 6611TIP3    H120262   2.875   2.999   0.150 -1.3882  0.1662  0.3569
 6611TIP3    H220263   2.785   2.948   0.040 -1.1050 -0.8213  0.5802
 6612TIP3   OH220264   3.301   2.191   0.556  0.2716 -0.1882  0.2353
 6612TIP3    H120265   3.234   2.250   0.588  0.4255  0.6245 -0.8950
 6612TIP3    H220266   3.301   2.118   0.618 -1.4328 -0.0593  0.4098
 6613TIP3   OH220267   1.923   0.527   5.211 -0.5365 -0.0408 -0.2090
 6613TIP3    H120268   1.916   0.584   5.135  0.4040  1.0980  0.5460
 6613TIP3    H220269   1.834   0.492   5.223 -0.8786  0.4275 -1.3042
 6614TIP3   OH220270   2.593   2.179   4.882 -0.1882 -0.1662 -0.1350
 6614TIP3    H120271   2.612   2.266   4.846  0.8871 -1.1863 -2.1663
 6614TIP3    H220272   2.501   2.182   4.906 -0.9201  0.6691 -2.8547
 6615TIP3   OH220273   2.146   2.996   5.884 -0.1836  0.1990 -0.2550
 6615TIP3    H120274   2.167   3.012   5.975 -0.0341 -2.2060  0.1760
 6615TIP3    H220275   2.231   2.993   5.839 -0.2452  1.1702 -0.4423
 6616TIP3   OH220276   2.811   2.161   4.612 -0.3830 -0.2268  0.2800
 6616TIP3    H120277   2.885   2.207   4.572  0.3971 -1.3875  0.3519
 6616TIP3    H220278   2.754   2.230   4.644  0.0444  0.7002 -0.9122
 6617TIP3   OH220279   2.945   0.202   1.886 -0.3719  0.3304  0.2072
 6617TIP3    H120280   2.928   0.191   1.792  0.1643 -0.6595  0.2131
 6617TIP3    H220281   2.859   0.213   1.925 -0.5599  1.3097 -0.4764
 6618TIP3   OH220282   3.816   2.848   2.945 -0.2459  0.2879  0.3002
 6618TIP3    H120283   3.738   2.803   2.977 -0.3251  0.8158  0.8702
 6618TIP3    H220284   3.851   2.791   2.876 -0.9803 -0.0794  0.2307
 6619TIP3   OH220285   1.902   1.977   0.436 -0.4828  0.0939  0.6789
 6619TIP3    H120286   1.979   2.033   0.426 -1.2643  1.2023  0.7829
 6619TIP3    H220287   1.937   1.889   0.448  0.8056  0.7743  1.9752
 6620TIP3   OH220288   4.153   2.625   4.154  0.0496 -0.2732  0.0097
 6620TIP3    H120289   4.177   2.611   4.246 -2.1878  1.2347  0.8705
 6620TIP3    H220290   4.102   2.706   4.155 -1.3891 -1.1097 -2.3155
 6621TIP3   OH220291   2.991   5.454   5.188 -0.2843  0.4852 -0.5234
 6621TIP3    H120292   3.026   5.528   5.239  2.1536 -0.4660 -0.7279
 6621TIP3    H220293   3.047   5.380   5.213 -1.0349 -0.6871 -2.2820
 6622TIP3   OH220294   3.437   2.114   4.612 -0.2278 -0.5983 -0.2761
 6622TIP3    H120295   3.512   2.172   4.598  0.0066 -1.1409 -1.3385
 6622TIP3    H220296   3.409   2.132   4.701  1.3756 -0.6087  0.2518
 6623TIP3   OH220297   2.060   0.734   3.540 -0.3603 -0.1294  0.1064
 6623TIP3    H120298   2.003   0.770   3.472 -0.6695 -1.8182 -0.5523
 6623TIP3    H220299   2.092   0.811   3.587 -3.4679  0.8409  0.7492
 6624TIP3   OH220300   5.839   2.053   5.082 -0.0802  0.0541  0.3151
 6624TIP3    H120301   5.865   2.097   5.163 -0.4771 -0.2237  0.5966
 6624TIP3    H220302   5.901   2.084   5.016  0.5440 -0.0879  0.8318
 6625TIP3   OH220303   2.342   2.569   0.163 -0.8251  0.5850  0.2785
 6625TIP3    H120304   2.269   2.509   0.147 -0.9342  1.0886 -1.2097
 6625TIP3    H220305   2.413   2.512   0.193 -1.2622 -0.1526 -0.0575
 6626TIP3   OH220306   0.681   3.277   0.553 -0.7600  0.4635 -0.0822
 6626TIP3    H120307   0.657   3.338   0.483 -2.4408  0.6423  0.6259
 6626TIP3    H220308   0.620   3.204   0.543 -1.9650  1.1400  2.0275
 6627TIP3   OH220309   3.118   0.749   5.939  0.2847  0.6814 -0.0136
 6627TIP3    H120310   3.193   0.763   5.881 -0.1666  0.7298 -0.5930
 6627TIP3    H220311   3.069   0.678   5.897 -0.4911  1.2862 -0.1317
 6628TIP3   OH220312   3.561   0.060   1.343  0.1664 -0.5530  0.1915
 6628TIP3    H120313   3.466   0.067   1.328  0.1661 -2.0206 -0.5732
 6628TIP3    H220314   3.596   0.144   1.313 -1.0901  0.7673  2.2500
 6629TIP3   OH220315   2.942   1.638   5.949  0.6129  0.5981 -0.6089
 6629TIP3    H120316   2.935   1.553   5.906  1.1310  0.4981 -0.4985
 6629TIP3    H220317   2.916   1.621   6.039  2.1352  0.2434 -0.2212
 6630TIP3   OH220318   3.126   1.091   0.321 -0.1810  0.8205 -0.0549
 6630TIP3    H120319   3.184   1.030   0.367  0.2828 -0.4662 -2.2597
 6630TIP3    H220320   3.184   1.162   0.293  0.1329  0.1187 -1.2278
 6631TIP3   OH220321   1.896   0.835   5.522 -0.3150  0.1700  0.4320
 6631TIP3    H120322   1.822   0.785   5.486 -0.1287 -1.1884  1.8835
 6631TIP3    H220323   1.889   0.824   5.616  0.6942  1.5741  0.6840
 6632TIP3   OH220324   2.903   3.713   0.058  0.0501 -0.1356 -0.6577
 6632TIP3    H120325   2.994   3.694   0.034  0.7337  3.5126 -1.2752
 6632TIP3    H220326   2.858   3.722  -0.026 -0.4274  0.0593 -0.3789
 6633TIP3   OH220327   0.741   1.743   5.651 -0.1698  0.1624  0.1713
 6633TIP3    H120328   0.651   1.777   5.652 -1.1838 -2.2472 -2.2378
 6633TIP3    H220329   0.741   1.677   5.721 -0.8894 -1.1474 -1.0190
 6634TIP3   OH220330   5.299   0.816   0.743  0.0342  0.0109  0.6896
 6634TIP3    H120331   5.216   0.779   0.712  0.0396  0.5436  0.0360
 6634TIP3    H220332   5.305   0.901   0.700  0.4457  0.4064  1.5102
 6635TIP3   OH220333   5.512   3.722   6.079  0.4023 -0.4191 -0.5244
 6635TIP3    H120334   5.516   3.725   5.983 -0.7567 -0.4089 -0.5770
 6635TIP3    H220335   5.448   3.653   6.098  0.7359 -0.5218  0.2444
 6636TIP3   OH220336   0.447   0.341   5.826 -0.1439 -0.4302 -0.6685
 6636TIP3    H120337   0.421   0.420   5.874 -1.2907 -0.8312 -0.6206
 6636TIP3    H220338   0.536   0.360   5.796  0.8766 -0.4691  2.2340
 6637TIP3   OH220339   1.184   0.969   1.556  0.4890  0.1065  0.2069
 6637TIP3    H120340   1.191   0.986   1.462  1.9845  1.0657  0.4767
 6637TIP3    H220341   1.243   0.895   1.572 -0.0737 -0.3237  0.3411
 6638TIP3   OH220342   3.220   2.650   0.238 -0.6362  0.2759  0.0615
 6638TIP3    H120343   3.253   2.588   0.173  0.7413 -0.3370  1.3346
 6638TIP3    H220344   3.281   2.724   0.233 -2.1130  1.4704 -1.2585
 6639TIP3   OH220345   2.736   2.427   5.920  1.2415  0.3905 -0.5681
 6639TIP3    H120346   2.683   2.503   5.893  0.1144  0.5624  1.9887
 6639TIP3    H220347   2.672   2.357   5.933  1.8750 -0.0124  0.4541
 6640TIP3   OH220348   4.604   0.819   5.168  0.0161  0.3072 -0.2436
 6640TIP3    H120349   4.548   0.786   5.098  0.4815 -0.0984 -0.4270
 6640TIP3    H220350   4.672   0.753   5.178 -0.1781  0.2544  0.7505
 6641TIP3   OH220351   4.579   5.970   5.737  0.5564 -0.4326 -0.3810
 6641TIP3    H120352   4.638   6.017   5.679 -0.2078  2.0797  0.7924
 6641TIP3    H220353   4.637   5.918   5.793  1.4648 -0.3608 -1.2388
 6642TIP3   OH220354   0.066   5.955   0.381  0.8072 -0.2520  0.6672
 6642TIP3    H120355   0.044   5.966   0.473 -2.1218 -2.1187  0.2437
 6642TIP3    H220356   0.034   6.035   0.339  0.2611 -0.3119  0.9694
 6643TIP3   OH220357   0.205   0.078   4.991  0.1992 -0.0826  0.1721
 6643TIP3    H120358   0.133   0.130   4.956 -1.0002 -1.0210  1.2061
 6643TIP3    H220359   0.268   0.072   4.919 -1.7764 -1.1704 -1.5067
 6644TIP3   OH220360   4.802   1.540   5.262 -0.1888  0.0546  0.1939
 6644TIP3    H120361   4.822   1.461   5.213 -0.3110 -0.4991  1.0178
 6644TIP3    H220362   4.794   1.510   5.353 -1.7960  0.7456  0.2940
 6645TIP3   OH220363   5.819   0.928   1.367 -0.0563  0.1299  0.0579
 6645TIP3    H120364   5.768   0.897   1.442  1.5619  0.7175  1.4499
 6645TIP3    H220365   5.863   0.850   1.335 -2.3023 -0.4990 -1.5529
 6646TIP3   OH220366   5.001   0.923   0.077 -0.1130  0.2113 -0.0435
 6646TIP3    H120367   5.088   0.907   0.115 -0.2353  1.4596  0.8144
 6646TIP3    H220368   5.009   1.010   0.037 -1.1623  0.6295  0.6347
 6647TIP3   OH220369   2.077   2.007   4.061  0.4120  0.0686  0.0314
 6647TIP3    H120370   2.162   2.010   4.104  0.3958 -1.7366  0.2662
 6647TIP3    H220371   2.045   1.918   4.078 -1.6737  0.8168  0.2398
 6648TIP3   OH220372   5.498   1.750   5.969 -0.1422  0.3070  0.5056
 6648TIP3    H120373   5.511   1.771   6.061 -2.5200 -2.5659  1.5704
 6648TIP3    H220374   5.404   1.738   5.960 -0.0558  1.3892 -2.5269
 6649TIP3   OH220375   3.166   5.720   4.941 -0.1233  0.4644 -0.1180
 6649TIP3    H120376   3.174   5.689   4.851 -3.8663 -1.8256  0.2386
 6649TIP3    H220377   3.233   5.671   4.989  1.5028  1.2816 -1.4932
 6650TIP3   OH220378   4.188   4.948   0.292 -0.1159  0.5263 -0.1273
 6650TIP3    H120379   4.274   4.985   0.311 -0.6672  2.1287 -0.6537
 6650TIP3    H220380   4.189   4.935   0.197 -0.6274  1.0050 -0.1990
 6651TIP3   OH220381   5.207   2.013   0.003  0.0101 -0.3415  0.0977
 6651TIP3    H120382   5.293   2.047  -0.022 -0.2589  0.8529  0.8003
 6651TIP3    H220383   5.200   2.032   0.097  0.8286 -4.3654  1.0846
 6652TIP3   OH220384   2.926   4.946   3.840 -0.2528 -0.4559  0.2391
 6652TIP3    H120385   2.867   5.020   3.830  0.9595  0.6819  1.3934
 6652TIP3    H220386   2.961   4.930   3.752 -1.1708 -0.2289 -0.1726
 6653TIP3   OH220387   3.597   1.597   0.581  0.4330 -0.1856  0.5585
 6653TIP3    H120388   3.688   1.580   0.555 -0.0554 -0.1277 -1.2668
 6653TIP3    H220389   3.604   1.663   0.650  1.7439  0.3333 -0.0489
 6654TIP3   OH220390   6.043   0.195   4.975 -0.4357 -0.7754  1.0951
 6654TIP3    H120391   6.020   0.103   4.987 -3.3264 -0.3020 -0.2981
 6654TIP3    H220392   5.977   0.229   4.915  1.7257  1.7472 -0.0055
 6655TIP3   OH220393   3.793   2.459   0.225  0.3685  0.8364  0.5071
 6655TIP3    H120394   3.805   2.489   0.315  0.4693  2.0551  0.1059
 6655TIP3    H220395   3.723   2.514   0.190  0.1830  0.2311 -0.0986
 6656TIP3   OH220396   0.803   5.354   5.538  0.6461 -0.3035 -0.0802
 6656TIP3    H120397   0.748   5.328   5.612  1.8631 -2.2376  0.1752
 6656TIP3    H220398   0.824   5.446   5.554 -0.6833 -0.1778  0.9649
 6657TIP3   OH220399   0.690   5.639   5.261  0.4143 -0.2854  0.4746
 6657TIP3    H120400   0.748   5.630   5.337  0.3587  1.3696  0.7261
 6657TIP3    H220401   0.726   5.579   5.196  3.4539  1.9397  0.0121
 6658TIP3   OH220402   4.642   1.050   5.684  0.4811  0.0791  0.1868
 6658TIP3    H120403   4.642   0.955   5.675 -0.0398  0.1562 -0.7043
 6658TIP3    H220404   4.712   1.080   5.627  0.2318  0.2641 -0.0275
 6659TIP3   OH220405   3.465   0.393   4.477  0.4534 -0.4920  0.4609
 6659TIP3    H120406   3.473   0.308   4.522 -1.2877 -0.8159  0.1664
 6659TIP3    H220407   3.397   0.379   4.411  1.5353  0.5785 -0.9220
 6660TIP3   OH220408   0.579   5.792   5.954  0.3734  0.1944  0.4148
 6660TIP3    H120409   0.569   5.725   5.887  0.0454  0.5464  0.1035
 6660TIP3    H220410   0.491   5.828   5.964  0.4033  0.0694  1.1140
 6661TIP3   OH220411   0.226   5.260   2.125 -0.0424  0.3831 -0.3526
 6661TIP3    H120412   0.218   5.169   2.152  1.0088  0.6125  0.7427
 6661TIP3    H220413   0.313   5.267   2.087 -0.2348  0.8616 -0.7176
 6662TIP3   OH220414   1.722   5.110   4.840  0.7561 -0.2595 -0.0352
 6662TIP3    H120415   1.743   5.190   4.889  0.6276 -1.5731  2.2259
 6662TIP3    H220416   1.805   5.065   4.830  0.9540  0.4631 -1.9713
 6663TIP3   OH220417   4.303   5.571   5.586 -0.1907 -0.3135 -0.3807
 6663TIP3    H120418   4.208   5.574   5.595 -0.3386 -2.0529 -1.0623
 6663TIP3    H220419   4.321   5.482   5.555  1.8231 -0.6637  1.6533
 6664TIP3   OH220420   3.535   1.259   0.150  0.4389  0.2416 -0.0626
 6664TIP3    H120421   3.573   1.215   0.226  2.2807  0.4284 -0.8537
 6664TIP3    H220422   3.507   1.344   0.183 -1.2154 -0.6682  0.9900
 6665TIP3   OH220423   4.180   2.401   4.692 -0.5848 -0.1494 -0.4420
 6665TIP3    H120424   4.094   2.411   4.731 -0.1506  0.5943  0.3496
 6665TIP3    H220425   4.166   2.343   4.617 -1.1745 -2.7616  1.6051
 6666TIP3   OH220426   3.531   4.904   1.604 -0.1574 -0.6151 -0.3236
 6666TIP3    H120427   3.606   4.959   1.583 -0.3816  0.3508  1.3226
 6666TIP3    H220428   3.569   4.821   1.632  0.2372 -0.6191 -0.8553
 6667TIP3   OH220429   2.981   1.919   0.686  0.0183 -0.1412 -0.2012
 6667TIP3    H120430   3.058   1.926   0.630 -0.1121  0.6717 -0.2725
 6667TIP3    H220431   3.010   1.864   0.759  1.1386  1.4941  0.5974
 6668TIP3   OH220432   2.308   2.532   0.847  0.5083  0.3080 -0.0711
 6668TIP3    H120433   2.221   2.499   0.869  0.2694  0.6016 -0.5736
 6668TIP3    H220434   2.308   2.539   0.752  0.8293  0.9878 -0.0261
 6669TIP3   OH220435   4.937   4.308   2.544 -0.3685  0.0112  0.7726
 6669TIP3    H120436   4.933   4.378   2.609  0.7995  0.4735  0.3510
 6669TIP3    H220437   5.030   4.302   2.520 -1.1257  1.7073 -2.9078
 6670TIP3   OH220438   4.953   0.536   0.880  0.7818 -0.2282 -0.1318
 6670TIP3    H120439   4.876   0.533   0.937 -0.8413  1.0778 -2.1934
 6670TIP3    H220440   4.951   0.454   0.832 -0.2070  0.4134 -1.2373
 6671TIP3   OH220441   2.666   2.140   2.086 -0.1253  0.8246  0.1248
 6671TIP3    H120442   2.741   2.166   2.138  0.2617 -1.3601  0.7167
 6671TIP3    H220443   2.703   2.091   2.012 -0.9953 -2.1518  1.5605
 6672TIP3   OH220444   2.917   2.534   0.001 -0.0318  0.1228  0.3778
 6672TIP3    H120445   2.956   2.614  -0.034 -1.1165  0.2700 -0.5463
 6672TIP3    H220446   2.852   2.509  -0.065 -1.1490 -0.3690  1.6462
 6673TIP3   OH220447   0.731   6.038   5.844 -0.0322  0.0889 -0.3623
 6673TIP3    H120448   0.691   5.959   5.879 -0.4686  1.3622  2.1646
 6673TIP3    H220449   0.759   6.087   5.922  0.8097  2.1156 -1.8861
 6674TIP3   OH220450   2.529   1.056   4.507  0.1184 -0.4474  0.1464
 6674TIP3    H120451   2.464   0.987   4.517  1.0171 -1.3966 -0.5139
 6674TIP3    H220452   2.570   1.038   4.423  2.2357 -0.7005  1.2149
 6675TIP3   OH220453   1.586   2.633   0.203 -0.1732  0.2804 -0.7948
 6675TIP3    H120454   1.533   2.590   0.135 -1.0292  1.8102 -1.1239
 6675TIP3    H220455   1.585   2.572   0.276 -0.9625 -0.4871 -1.4318
 6676TIP3   OH220456   2.921   0.148   4.452  0.2392  0.3096  0.3758
 6676TIP3    H120457   2.863   0.208   4.406  1.2056  0.8782 -0.1064
 6676TIP3    H220458   3.002   0.197   4.465  0.2698 -0.1280  1.9595
 6677TIP3   OH220459   5.037   1.181   6.038  0.3561  0.4056  0.5347
 6677TIP3    H120460   5.121   1.162   5.997  0.0997  3.4236 -1.5455
 6677TIP3    H220461   5.047   1.269   6.074 -1.8394  0.7244  0.4249
 6678TIP3   OH220462   3.140   2.329   6.093  0.2298  0.8364  0.1082
 6678TIP3    H120463   3.170   2.327   6.002 -0.8149 -1.3758 -0.2253
 6678TIP3    H220464   3.074   2.398   6.094 -0.1840  0.4758 -0.9596
 6679TIP3   OH220465   4.702   3.060   0.286 -0.2755  0.2330 -0.0556
 6679TIP3    H120466   4.768   3.099   0.229 -0.1818 -1.4634 -1.1646
 6679TIP3    H220467   4.634   3.127   0.293  0.1175  0.7993 -1.4699
 6680TIP3   OH220468   4.058   1.077   5.096  0.1348 -0.2933  0.4589
 6680TIP3    H120469   4.113   1.051   5.171 -0.5975 -3.4845 -0.0518
 6680TIP3    H220470   3.979   1.112   5.136  1.0597  1.0614  1.1711
 6681TIP3   OH220471   5.025   0.762   0.670  0.4477  0.1537  0.5477
 6681TIP3    H120472   5.006   0.755   0.764  1.6225 -0.2870  0.7640
 6681TIP3    H220473   4.942   0.741   0.627 -0.3203  1.1894  1.5016
 6682TIP3   OH220474   1.147   0.332   5.070  0.0784  0.3170  0.1033
 6682TIP3    H120475   1.096   0.327   4.989  0.3127  1.7552 -0.1392
 6682TIP3    H220476   1.109   0.405   5.118 -0.4665 -0.9340  1.5980
 6683TIP3   OH220477   5.535   0.548   3.732  0.0044 -0.4284  0.4103
 6683TIP3    H120478   5.577   0.463   3.746 -1.7885 -1.1855  1.4301
 6683TIP3    H220479   5.442   0.531   3.746 -0.3944  1.6796  0.4838
 6684TIP3   OH220480   4.063   4.166   5.450 -0.3634  0.1653  0.0138
 6684TIP3    H120481   4.093   4.126   5.531  0.1156 -1.7545 -1.0617
 6684TIP3    H220482   3.967   4.167   5.458 -0.4116 -1.5067 -0.0193
 6685TIP3   OH220483   4.769   2.351   3.942 -0.4061 -0.0068 -0.0078
 6685TIP3    H120484   4.799   2.295   4.014 -0.0021  0.4617  0.1939
 6685TIP3    H220485   4.702   2.407   3.983 -0.2198  0.2175 -0.0081
 6686TIP3   OH220486   3.217   0.738   5.298 -0.0192  0.5576 -0.2731
 6686TIP3    H120487   3.276   0.663   5.291  0.7259  1.1269 -0.1583
 6686TIP3    H220488   3.216   0.760   5.391 -1.4780 -0.2920 -0.0824
 6687TIP3   OH220489   1.499   5.430   5.775  0.3239 -0.1430  0.0826
 6687TIP3    H120490   1.452   5.488   5.835  0.8379 -0.4480  0.7846
 6687TIP3    H220491   1.582   5.474   5.759 -0.3918  0.6478 -1.5646
 6688TIP3   OH220492   4.519   2.843   0.353  0.2957 -0.3038  0.1711
 6688TIP3    H120493   4.502   2.880   0.440  0.2620  0.5796 -0.1998
 6688TIP3    H220494   4.581   2.904   0.312 -2.5467  1.3980 -1.8150
 6689TIP3   OH220495   2.666   1.581   4.599 -0.1077 -0.0398  0.3111
 6689TIP3    H120496   2.661   1.525   4.676 -1.5303  0.4305  0.5824
 6689TIP3    H220497   2.746   1.631   4.611 -0.3748  0.1090  1.5514
 6690TIP3   OH220498   4.929   0.672   4.578  0.1663 -0.4269 -0.1524
 6690TIP3    H120499   4.882   0.681   4.495  1.5239  0.6778 -0.8238
 6690TIP3    H220500   4.869   0.708   4.644 -0.1964  0.3578 -0.9041
 6691TIP3   OH220501   3.564   3.412   6.050  0.6264 -0.8674  0.7347
 6691TIP3    H120502   3.652   3.448   6.048  0.9005 -1.5177  1.0654
 6691TIP3    H220503   3.546   3.386   5.960  1.5292 -2.5439  1.0143
 6692TIP3   OH220504   3.096   1.807   5.243  0.1054  0.2280  0.3397
 6692TIP3    H120505   3.021   1.754   5.270  0.0595  0.0173 -0.1906
 6692TIP3    H220506   3.092   1.884   5.299 -1.2300  0.7907 -0.4922
 6693TIP3   OH220507   5.078   1.068   3.789  0.4374 -0.1609  0.2850
 6693TIP3    H120508   5.125   1.077   3.706  1.5254  1.2853  1.0318
 6693TIP3    H220509   5.086   0.975   3.811  0.9056 -0.3869 -0.7792
 6694TIP3   OH220510   3.252   0.404   6.029 -0.0794  0.1561  0.3433
 6694TIP3    H120511   3.162   0.422   6.054  0.4379  2.5554  0.6302
 6694TIP3    H220512   3.304   0.463   6.083  1.2753  3.2195 -3.9578
 6695TIP3   OH220513   5.809   1.622   5.943 -0.0008 -0.3468  0.3068
 6695TIP3    H120514   5.858   1.617   5.861 -1.1936 -1.2696 -0.3701
 6695TIP3    H220515   5.728   1.667   5.920  0.3774  0.8743  1.3481
 6696TIP3   OH220516   1.600   3.204   5.266  0.7669 -0.1106  0.5600
 6696TIP3    H120517   1.568   3.294   5.270  1.0064 -0.0259  0.5722
 6696TIP3    H220518   1.544   3.156   5.327  1.4343  0.2745  1.4873
 6697TIP3   OH220519   0.186   5.711   5.709 -0.2648  0.1800 -0.2854
 6697TIP3    H120520   0.222   5.660   5.782  0.0038  2.2828  1.0977
 6697TIP3    H220521   0.091   5.701   5.717 -0.1688 -1.4514 -1.0388
 6698TIP3   OH220522   1.242   5.352   5.360  0.6090 -0.3245  0.0636
 6698TIP3    H120523   1.195   5.351   5.443 -0.1739  1.1177 -0.3504
 6698TIP3    H220524   1.259   5.260   5.341  0.8664 -0.6657  1.8523
 6699TIP3   OH220525   5.112   2.080   5.198 -0.3121  0.5188  0.1359
 6699TIP3    H120526   5.169   2.156   5.184  0.7306 -0.3457 -0.3976
 6699TIP3    H220527   5.054   2.080   5.122  0.3691  0.1910 -0.3916
 6700TIP3   OH220528   4.324   4.846   4.737  0.0321 -0.4400 -0.5039
 6700TIP3    H120529   4.346   4.753   4.736 -0.4757 -0.5875  0.8852
 6700TIP3    H220530   4.359   4.878   4.820  1.0164  0.8133 -1.3914
 6701TIP3   OH220531   4.757   0.148   0.020  0.4741  0.3735  0.0303
 6701TIP3    H120532   4.852   0.145   0.032  0.3899  2.3843  1.5033
 6701TIP3    H220533   4.723   0.082   0.080  0.8661  0.9180  0.8682
 6702TIP3   OH220534   4.045   1.280   4.056 -0.3973 -0.0451 -0.4633
 6702TIP3    H120535   4.055   1.243   4.143 -1.9412 -1.7695 -1.0056
 6702TIP3    H220536   4.133   1.278   4.019  0.3429  1.0552  1.1648
 6703TIP3   OH220537   4.394   3.298   4.244  0.1125 -0.5626  0.4060
 6703TIP3    H120538   4.349   3.381   4.260  1.5215  0.2736  0.1215
 6703TIP3    H220539   4.454   3.317   4.171  0.7537 -1.7143  0.6219
 6704TIP3   OH220540   0.019   3.801   1.222  0.2647  0.3175  0.3061
 6704TIP3    H120541   0.110   3.821   1.243  0.4522 -0.1265 -0.0623
 6704TIP3    H220542   0.012   3.814   1.127 -0.3917  1.6231  0.5269
 6705TIP3   OH220543   3.727   1.563   4.383  0.7020  0.0088  0.2622
 6705TIP3    H120544   3.724   1.487   4.324 -0.9927 -0.4572  0.9337
 6705TIP3    H220545   3.815   1.598   4.371  0.8275 -0.8523 -1.5785
 6706TIP3   OH220546   0.097   2.682   5.992 -0.0476  0.3786  0.0670
 6706TIP3    H120547   0.012   2.657   6.026  0.2575 -1.4707 -0.4652
 6706TIP3    H220548   0.079   2.753   5.931 -1.0029  1.1437  1.2276
 6707TIP3   OH220549   2.580   3.902   3.810 -0.1989  0.2498 -0.3714
 6707TIP3    H120550   2.652   3.963   3.793 -0.2445  0.0047 -1.4562
 6707TIP3    H220551   2.587   3.836   3.742  0.6217 -1.7005  1.5361
 6708TIP3   OH220552   2.966   1.880   5.580  0.3253  0.0419  0.3257
 6708TIP3    H120553   3.034   1.819   5.608  0.1296 -0.5112 -0.3829
 6708TIP3    H220554   2.901   1.824   5.537 -0.3088  0.6363  0.5063
 6709TIP3   OH220555   1.296   3.741   5.229  0.3451 -0.5961 -0.6625
 6709TIP3    H120556   1.250   3.706   5.152  0.1185 -0.6534 -0.5023
 6709TIP3    H220557   1.259   3.828   5.242  0.1740 -0.7028 -0.4410
 6710TIP3   OH220558   5.260   2.497   5.357 -0.0604  0.0498  0.3931
 6710TIP3    H120559   5.285   2.507   5.448  0.1606  0.0494  0.3334
 6710TIP3    H220560   5.248   2.586   5.325 -2.0185 -0.0047  0.9353
 6711TIP3   OH220561   0.333   3.633   0.326  0.2543  0.7665  0.2691
 6711TIP3    H120562   0.378   3.675   0.399 -2.0514  0.7298  1.7389
 6711TIP3    H220563   0.252   3.682   0.316 -0.6638 -0.8963 -0.5494
 6712TIP3   OH220564   0.544   3.636   0.133 -0.3189 -0.5334 -0.4496
 6712TIP3    H120565   0.534   3.626   0.038 -0.3749 -1.7771 -0.3249
 6712TIP3    H220566   0.455   3.633   0.167 -0.4451  1.8406 -0.5153
 6713TIP3   OH220567   1.439   5.656   5.931  0.2533  0.5566 -0.1671
 6713TIP3    H120568   1.452   5.664   6.025  2.3452 -1.3649 -0.2611
 6713TIP3    H220569   1.483   5.733   5.894 -0.3260  1.1599  0.3746
 6714TIP3   OH220570   4.530   5.059   1.895 -0.5177  0.3156 -0.2836
 6714TIP3    H120571   4.497   5.054   1.805  0.8660 -0.1214 -0.7918
 6714TIP3    H220572   4.597   4.991   1.899 -1.2513 -0.3391  1.3911
 6715TIP3   OH220573   0.116   1.870   5.101 -0.2571  0.1615 -0.7994
 6715TIP3    H120574   0.166   1.948   5.124 -1.0343  0.7522 -1.1025
 6715TIP3    H220575   0.182   1.806   5.074  0.3477  0.8835 -1.0386
 6716TIP3   OH220576   5.475   2.511   0.935  0.3910 -0.4114  0.3521
 6716TIP3    H120577   5.498   2.462   0.856 -0.3792  0.1617 -0.2421
 6716TIP3    H220578   5.488   2.449   1.007 -2.9632 -2.3419 -0.5770
 6717TIP3   OH220579   0.230   3.892   4.656 -0.0938  0.1431  0.2950
 6717TIP3    H120580   0.145   3.920   4.692 -1.1297 -1.3421 -0.9220
 6717TIP3    H220581   0.228   3.923   4.566 -0.0083 -1.2264 -0.1892
 6718TIP3   OH220582   1.183   2.177   6.003  0.2415  0.6995  0.1193
 6718TIP3    H120583   1.272   2.154   6.029 -0.2578 -1.4359  0.0160
 6718TIP3    H220584   1.144   2.094   5.973 -1.2993  1.8801 -1.2471
 6719TIP3   OH220585   2.647   4.067   5.926 -0.1518 -0.1169 -0.2398
 6719TIP3    H120586   2.695   4.146   5.902  1.6459 -0.6876  1.3555
 6719TIP3    H220587   2.555   4.090   5.913  0.3578  2.1432 -0.0594
 6720TIP3   OH220588   1.323   5.564   5.072 -0.0027  0.3554  0.0539
 6720TIP3    H120589   1.314   5.494   5.137  0.0272  1.0473  0.8077
 6720TIP3    H220590   1.268   5.535   4.999  0.2985 -0.6265  0.2097
 6721TIP3   OH220591   2.366   2.900   5.693  0.4269  0.0377  0.4858
 6721TIP3    H120592   2.330   2.977   5.648  2.0560 -0.2725 -1.4313
 6721TIP3    H220593   2.343   2.827   5.636 -0.8454 -0.8688  2.1461
 6722TIP3   OH220594   2.590   5.866   0.173  0.3038  0.4518 -0.5885
 6722TIP3    H120595   2.596   5.961   0.185  0.8675  0.4271 -0.6206
 6722TIP3    H220596   2.666   5.832   0.221 -0.3094 -0.0366  0.0345
 6723TIP3   OH220597   4.786   0.947   5.921  0.4352  0.0612  0.5609
 6723TIP3    H120598   4.718   0.975   5.982 -2.4451 -1.9017 -1.6131
 6723TIP3    H220599   4.768   0.997   5.841 -1.4562 -3.8023 -1.5666
 6724TIP3   OH220600   5.252   4.896   3.743 -0.3881 -0.3680  0.2625
 6724TIP3    H120601   5.294   4.908   3.828 -0.0756 -0.9632  0.1957
 6724TIP3    H220602   5.324   4.879   3.682 -0.7059 -1.1976  0.1115
 6725TIP3   OH220603   1.063   3.509   5.925  0.7522 -0.6542 -0.1924
 6725TIP3    H120604   0.977   3.540   5.896  0.2867 -2.1931 -0.4640
 6725TIP3    H220605   1.052   3.490   6.018  1.0166 -0.1427 -0.0485
 6726TIP3   OH220606   5.195   1.737   0.077 -0.1690 -0.1081 -0.0698
 6726TIP3    H120607   5.241   1.808   0.123 -1.8055  1.5062 -0.8517
 6726TIP3    H220608   5.163   1.777  -0.004  0.1819 -2.1607 -1.2627
 6727TIP3   OH220609   0.739   0.766   4.294  0.0080 -0.2893  0.6522
 6727TIP3    H120610   0.650   0.741   4.273  0.3381 -0.6593 -0.3367
 6727TIP3    H220611   0.791   0.687   4.277  0.8293  0.5797 -0.9901
 6728TIP3   OH220612   1.187   1.993   5.521  0.2914  0.5776 -0.1630
 6728TIP3    H120613   1.100   1.968   5.552 -0.1124  0.5319 -1.3157
 6728TIP3    H220614   1.203   1.937   5.445  1.5415  0.2308  0.3308
 6729TIP3   OH220615   4.919   4.606   5.470  0.2826 -0.1712 -0.7218
 6729TIP3    H120616   4.940   4.669   5.401 -0.9612  1.6635  0.5270
 6729TIP3    H220617   5.002   4.591   5.514  0.4587  1.1486 -0.5886
 6730TIP3   OH220618   3.655   3.988   3.955  0.5023 -0.0136 -0.7166
 6730TIP3    H120619   3.671   4.033   4.038 -0.3943  2.4446 -1.8116
 6730TIP3    H220620   3.635   3.898   3.979 -0.6046  0.8769  1.8007
 6731TIP3   OH220621   5.559   2.819   5.683 -0.4965 -0.0557  0.0789
 6731TIP3    H120622   5.600   2.887   5.737 -0.3014 -0.7719  0.8488
 6731TIP3    H220623   5.566   2.852   5.593 -2.4232  1.9839  0.6258
 6732TIP3   OH220624   6.001   6.048   1.428 -0.0368 -0.5983 -0.2658
 6732TIP3    H120625   6.024   5.955   1.437  0.9468 -0.5210 -1.7837
 6732TIP3    H220626   5.993   6.061   1.334  1.8127  1.3158 -0.2027
 6733TIP3   OH220627   4.573   0.714   2.911  1.2780  0.0065 -0.4186
 6733TIP3    H120628   4.542   0.623   2.905 -0.4359  0.7565 -4.2674
 6733TIP3    H220629   4.636   0.713   2.983  0.0963 -3.8862  0.6799
 6734TIP3   OH220630   5.109   2.138   4.759  0.0276  0.4670 -0.2254
 6734TIP3    H120631   5.156   2.057   4.738 -1.4922 -0.4722 -0.1000
 6734TIP3    H220632   5.052   2.114   4.832 -0.4469  1.6564 -0.1986
 6735TIP3   OH220633   4.602   3.527   0.914 -0.2761 -0.0909  0.1100
 6735TIP3    H120634   4.612   3.618   0.941  3.4334 -0.1935 -0.6329
 6735TIP3    H220635   4.573   3.482   0.993 -1.7690  1.6540  0.5870
 6736TIP3   OH220636   0.852   3.329   0.297 -0.2015  0.0141  0.4419
 6736TIP3    H120637   0.801   3.252   0.321 -0.9438 -0.0333 -1.2176
 6736TIP3    H220638   0.790   3.387   0.253  0.9995  0.2847 -0.9345
 6737TIP3   OH220639   1.474   3.288   1.671 -0.6991 -0.7321  0.1423
 6737TIP3    H120640   1.449   3.271   1.762  0.0538 -1.9367  0.1412
 6737TIP3    H220641   1.535   3.361   1.676 -0.6747 -0.7829  0.6099
 6738TIP3   OH220642   2.265   4.431   0.201 -0.3238  0.1553 -0.2567
 6738TIP3    H120643   2.308   4.365   0.256  3.0670  1.7114 -0.9675
 6738TIP3    H220644   2.207   4.380   0.145 -0.9372 -1.8255  2.0478
 6739TIP3   OH220645   5.474   1.862   5.404 -0.3601  0.3440 -0.4548
 6739TIP3    H120646   5.520   1.859   5.320 -3.3303 -1.9163 -2.1054
 6739TIP3    H220647   5.510   1.788   5.453  1.2026  1.5203  0.2201
 6740TIP3   OH220648   0.948   2.429   5.097 -0.3870 -0.0748 -0.1383
 6740TIP3    H120649   0.887   2.483   5.145 -0.5037 -0.9957  0.7706
 6740TIP3    H220650   0.908   2.417   5.011 -1.8379 -1.2404  0.6721
 6741TIP3   OH220651   0.807   5.850   0.208  0.4763 -0.0820  0.3849
 6741TIP3    H120652   0.841   5.940   0.205 -0.8441  0.3785 -1.9898
 6741TIP3    H220653   0.717   5.857   0.175  0.1471 -2.1957  0.7681
 6742TIP3   OH220654   0.087   2.406   5.618  0.6200  0.1553 -0.0198
 6742TIP3    H120655   0.160   2.444   5.667 -0.1651  0.2358  1.0841
 6742TIP3    H220656   0.083   2.316   5.648  0.1061  0.2182  0.0976
 6743TIP3   OH220657   2.832   4.892   5.190  0.3541  0.2289  0.1221
 6743TIP3    H120658   2.765   4.908   5.123  0.9050 -0.2255 -0.5503
 6743TIP3    H220659   2.783   4.869   5.269 -0.2899  0.2165 -0.2768
 6744TIP3   OH220660   5.631   3.059   5.848 -0.5195  0.3160 -0.4565
 6744TIP3    H120661   5.713   3.104   5.869 -0.4268 -0.0412 -0.0379
 6744TIP3    H220662   5.566   3.101   5.905 -0.5581  0.3599 -0.5330
 6745TIP3   OH220663   1.491   1.428   5.949 -0.3683 -0.1254 -0.6453
 6745TIP3    H120664   1.440   1.509   5.947 -0.2606  0.0097  1.6144
 6745TIP3    H220665   1.582   1.457   5.937 -0.5778 -0.1891 -2.6146
 6746TIP3   OH220666   0.480   0.864   5.287  0.5598 -0.3616 -0.0582
 6746TIP3    H120667   0.559   0.918   5.286 -0.1665  0.7370  0.3853
 6746TIP3    H220668   0.512   0.775   5.300  1.6067  0.3428  2.6269
 6747TIP3   OH220669   1.192   2.795   2.119 -0.1219 -0.1894 -0.0942
 6747TIP3    H120670   1.129   2.857   2.154 -0.6763 -0.4232 -0.6684
 6747TIP3    H220671   1.139   2.719   2.094  0.6607 -1.2655  1.4616
 6748TIP3   OH220672   2.130   3.286   5.143 -0.8593  0.3866 -1.0242
 6748TIP3    H120673   2.084   3.327   5.216  0.2509  2.1601 -1.3004
 6748TIP3    H220674   2.200   3.235   5.184 -0.5934  0.9190 -0.8180
 6749TIP3   OH220675   4.334   2.722   5.374  0.5747  0.3731  0.1447
 6749TIP3    H120676   4.383   2.803   5.386  0.2305  0.6555 -0.3339
 6749TIP3    H220677   4.243   2.747   5.390  0.3174  0.3611 -1.2443
 6750TIP3   OH220678   5.531   5.413   4.251  0.1645  0.1203  0.1006
 6750TIP3    H120679   5.581   5.352   4.196 -0.4450 -0.6483  0.4055
 6750TIP3    H220680   5.500   5.480   4.189  0.2025 -0.2751 -0.3519
 6751TIP3   OH220681   0.987   4.091   0.949 -0.2904 -0.2156 -0.1120
 6751TIP3    H120682   1.050   4.035   0.903  1.3055  0.0371  1.6914
 6751TIP3    H220683   0.988   4.173   0.901 -0.5695 -0.8053 -1.1403
 6752TIP3   OH220684   5.651   3.252   4.156  0.0896 -0.3785 -0.2028
 6752TIP3    H120685   5.670   3.188   4.225  1.6552 -0.2545 -0.4919
 6752TIP3    H220686   5.644   3.200   4.076 -2.9219 -0.6650  0.1905
 6753TIP3   OH220687   0.993   2.010   5.868  0.0238 -0.2292 -0.0018
 6753TIP3    H120688   0.965   2.013   5.777 -0.8074 -1.2468  0.2099
 6753TIP3    H220689   0.915   2.030   5.919  0.2128 -0.7707  0.5196
 6754TIP3   OH220690   5.640   2.746   0.590  0.1559 -0.2682 -0.2917
 6754TIP3    H120691   5.719   2.736   0.537  0.2064  1.2384 -0.5268
 6754TIP3    H220692   5.603   2.830   0.563  0.7714  1.0872  2.7528
 6755TIP3   OH220693   1.689   4.903   0.097 -0.0534 -0.3775 -0.1346
 6755TIP3    H120694   1.782   4.881   0.099 -0.4786 -2.4105 -1.3099
 6755TIP3    H220695   1.644   4.819   0.099 -1.8350  0.4864 -1.7501
 6756TIP3   OH220696   0.480   2.496   5.002 -0.1150  0.6302  0.2069
 6756TIP3    H120697   0.519   2.412   5.028 -1.5948 -0.4803 -1.0518
 6756TIP3    H220698   0.435   2.527   5.080 -2.8352 -1.6973 -0.3470
 6757TIP3   OH220699   1.947   5.848   1.697 -0.3717 -0.3650 -0.1759
 6757TIP3    H120700   1.914   5.854   1.607 -1.3948 -0.6888  0.1665
 6757TIP3    H220701   1.995   5.766   1.700 -0.5558 -0.4786 -0.3594
 6758TIP3   OH220702   2.392   3.659   5.291 -0.4443  0.0009 -0.3435
 6758TIP3    H120703   2.396   3.615   5.376  0.8030 -0.9715 -0.8951
 6758TIP3    H220704   2.317   3.719   5.299 -0.2952 -0.0141  1.4628
 6759TIP3   OH220705   3.581   5.053   3.288 -0.1317 -0.4756 -0.5700
 6759TIP3    H120706   3.552   5.083   3.373  0.7897 -1.6476  0.1719
 6759TIP3    H220707   3.523   4.981   3.265  0.3991 -0.9763 -0.3603
 6760TIP3   OH220708   0.369   2.257   6.093  0.1399 -0.0495 -0.0759
 6760TIP3    H120709   0.394   2.206   6.016 -0.4233 -0.3281 -0.0823
 6760TIP3    H220710   0.290   2.304   6.066  0.1256  0.1060  0.2293
 6761TIP3   OH220711   4.403   1.862   1.014 -0.6524 -0.0926 -0.2783
 6761TIP3    H120712   4.474   1.856   1.078 -0.3873  0.1621 -0.5495
 6761TIP3    H220713   4.390   1.956   1.000  0.6308 -0.1738 -2.0870
 6762TIP3   OH220714   0.055   4.667   5.827  0.5103 -0.3122  0.1444
 6762TIP3    H120715   0.030   4.621   5.747  0.1867  1.1891 -0.6219
 6762TIP3    H220716   0.090   4.751   5.797  2.2350 -0.5169  1.4545
 6763TIP3   OH220717   3.643   4.665   1.636  0.6782 -0.5897  0.6083
 6763TIP3    H120718   3.738   4.667   1.625  0.5408 -1.7910 -0.9509
 6763TIP3    H220719   3.628   4.586   1.688  0.4662 -0.8951  0.0843
 6764TIP3   OH220720   3.844   3.341   0.210 -0.2313 -0.1104 -0.0811
 6764TIP3    H120721   3.890   3.420   0.238 -0.0741 -0.4464  0.6135
 6764TIP3    H220722   3.904   3.299   0.149  1.3490 -1.6659  2.4602
 6765TIP3   OH220723   1.803   3.435   4.950 -0.6174 -0.6705  0.4003
 6765TIP3    H120724   1.713   3.402   4.947 -0.7992 -0.0309 -1.7737
 6765TIP3    H220725   1.794   3.529   4.967 -0.4222 -0.3736 -1.1101
 6766TIP3   OH220726   1.581   2.921   0.184  0.3598  0.4573 -0.4806
 6766TIP3    H120727   1.573   2.826   0.198 -0.9077  0.7471  0.8053
 6766TIP3    H220728   1.669   2.942   0.213  0.3069 -0.1693  0.1412
 6767TIP3   OH220729   4.040   3.923   0.379  0.3313  0.2320 -0.2042
 6767TIP3    H120730   4.062   3.887   0.293 -1.6924 -1.2521 -0.1405
 6767TIP3    H220731   4.005   4.010   0.360 -0.2526 -0.1470 -0.8943
 6768TIP3   OH220732   3.245   3.117   0.616  0.0923  0.5048  0.3921
 6768TIP3    H120733   3.164   3.167   0.619  0.3217  1.1080 -2.0877
 6768TIP3    H220734   3.238   3.066   0.535  1.2997 -0.9724  1.1938
 6769TIP3   OH220735   2.359   2.197   0.148  0.3731  0.2005  0.2923
 6769TIP3    H120736   2.334   2.139   0.076 -0.3154 -1.6065  1.9222
 6769TIP3    H220737   2.280   2.247   0.167  0.0717 -0.4884  0.8554
 6770TIP3   OH220738   3.948   1.289   5.653  0.1448  0.5110  0.6393
 6770TIP3    H120739   3.953   1.374   5.698 -1.9708  0.8471  0.2937
 6770TIP3    H220740   3.856   1.264   5.659  0.5442 -1.2411 -0.2406
 6771TIP3   OH220741   3.193   1.445   0.046  0.6763  0.0340  0.3806
 6771TIP3    H120742   3.123   1.507   0.066  0.9895  0.6459 -0.3870
 6771TIP3    H220743   3.153   1.358   0.057 -0.3433  0.3857 -0.5831
 6772TIP3   OH220744   5.432   3.339   3.806 -0.1302  0.3265 -0.1345
 6772TIP3    H120745   5.460   3.428   3.828  0.1334  0.2306 -0.0778
 6772TIP3    H220746   5.485   3.315   3.730  1.1066 -0.4566  0.9443
 6773TIP3   OH220747   3.005   3.970   0.717  0.5670 -0.3687 -0.6151
 6773TIP3    H120748   2.969   3.996   0.632  0.7800 -0.2388 -0.6678
 6773TIP3    H220749   3.098   3.992   0.711  0.7011 -0.9111 -0.5633
 6774TIP3   OH220750   3.278   3.882   4.142 -0.2464  0.0480  0.0142
 6774TIP3    H120751   3.345   3.816   4.159 -0.8027 -0.6166 -0.3229
 6774TIP3    H220752   3.220   3.840   4.078 -1.1747  0.4707  0.5773
 6775TIP3   OH220753   4.903   4.775   3.778  0.1082 -0.4491  0.1365
 6775TIP3    H120754   4.964   4.848   3.786 -2.1192  1.5088 -0.0789
 6775TIP3    H220755   4.830   4.811   3.727 -0.3640 -3.2784 -1.2456
 6776TIP3   OH220756   0.805   4.154   1.155 -0.0347  0.1369 -0.4022
 6776TIP3    H120757   0.851   4.153   1.239 -0.2853 -0.8608 -0.2722
 6776TIP3    H220758   0.874   4.172   1.091  0.1352  1.0400  0.0253
 6777TIP3   OH220759   2.869   5.249   4.134  0.6211  0.1157 -0.1178
 6777TIP3    H120760   2.921   5.173   4.160  1.1265  0.0687 -1.2452
 6777TIP3    H220761   2.934   5.316   4.112  0.1899  0.5066 -0.1964
 6778TIP3   OH220762   3.576   2.232   1.185 -0.3350 -0.1975  0.3365
 6778TIP3    H120763   3.570   2.137   1.183 -1.8515 -0.2284  3.3753
 6778TIP3    H220764   3.486   2.262   1.170 -0.0223  0.7374  0.3105
 6779TIP3   OH220765   4.848   3.828   5.954 -0.2461  0.3530  0.2050
 6779TIP3    H120766   4.858   3.920   5.981  0.7604  0.4173 -0.3537
 6779TIP3    H220767   4.760   3.824   5.915  0.8222  1.7986 -2.5020
 6780TIP3   OH220768   3.762   2.765   5.078  0.2620 -0.3541  0.0108
 6780TIP3    H120769   3.795   2.700   5.016  2.8717  1.3266 -0.4345
 6780TIP3    H220770   3.712   2.826   5.023 -2.7202 -2.2537  0.5173
 6781TIP3   OH220771   1.866   3.839   0.251 -0.2819 -0.0750 -0.5048
 6781TIP3    H120772   1.908   3.767   0.203  0.3956 -0.2845  0.3858
 6781TIP3    H220773   1.804   3.797   0.310 -1.0084  0.1756 -1.0776
 6782TIP3   OH220774   1.316   2.033   5.761 -0.4639 -0.1824 -0.1475
 6782TIP3    H120775   1.280   1.959   5.811 -1.6841  0.8039  0.4738
 6782TIP3    H220776   1.285   2.020   5.672 -0.7913 -0.3448 -0.0092
 6783TIP3   OH220777   2.362   3.527   0.779  0.3119  0.2159 -0.0880
 6783TIP3    H120778   2.418   3.569   0.845  0.8798  0.9871 -1.0522
 6783TIP3    H220779   2.297   3.594   0.758  1.1671  0.5999 -1.5649
 6784TIP3   OH220780   3.088   5.746   6.006  0.6801 -0.3807  0.2820
 6784TIP3    H120781   3.114   5.827   6.050  0.4079 -0.8286  1.2682
 6784TIP3    H220782   3.041   5.776   5.928 -1.1946  0.4253  1.6882
 6785TIP3   OH220783   2.428   3.332   1.329 -0.1260 -0.3031  0.0114
 6785TIP3    H120784   2.399   3.264   1.389  0.0328 -0.6580 -0.3142
 6785TIP3    H220785   2.370   3.324   1.253  1.5636 -1.7967 -1.1636
 6786TIP3   OH220786   5.793   4.135   5.761 -0.0149 -0.9589  1.1802
 6786TIP3    H120787   5.885   4.111   5.767  0.5794  1.0043  0.1805
 6786TIP3    H220788   5.747   4.064   5.806  2.0575 -1.3271  2.7720
 6787TIP3   OH220789   0.158   3.094   1.465 -0.0394  0.1233  0.1801
 6787TIP3    H120790   0.103   3.087   1.543 -1.0958  1.8666 -0.3872
 6787TIP3    H220791   0.150   3.009   1.422 -2.8564  0.5721 -0.2618
 6788TIP3   OH220792   3.203   2.208   0.235 -0.5508  0.1455  0.5607
 6788TIP3    H120793   3.155   2.248   0.163 -1.0968  0.3027  1.0102
 6788TIP3    H220794   3.155   2.234   0.314 -1.0730 -1.6138  0.8487
 6789TIP3   OH220795   4.723   4.737   5.608 -0.3155  0.3043 -0.3299
 6789TIP3    H120796   4.649   4.737   5.548 -0.9246 -1.7349  0.3607
 6789TIP3    H220797   4.795   4.698   5.559 -0.0427  1.1383 -0.5996
 6790TIP3   OH220798   1.365   4.311   5.822  0.3452 -0.2823  0.0323
 6790TIP3    H120799   1.372   4.224   5.782  2.1560  0.7694 -2.0263
 6790TIP3    H220800   1.319   4.364   5.757 -1.7007  0.0652  1.7240
 6791TIP3   OH220801   2.602   3.643   3.670 -0.0367 -0.2577 -0.2929
 6791TIP3    H120802   2.530   3.634   3.731  0.7134 -0.8367  0.5140
 6791TIP3    H220803   2.675   3.597   3.711  1.0515  1.0577 -0.6877
 6792TIP3   OH220804   4.979   3.397   5.765  0.2200 -0.5404 -0.8876
 6792TIP3    H120805   4.955   3.469   5.823  1.7398 -0.2391 -0.6239
 6792TIP3    H220806   4.909   3.332   5.778 -0.0173 -0.0318  0.4790
 6793TIP3   OH220807   1.777   2.672   5.889 -0.9828  0.7287  0.6502
 6793TIP3    H120808   1.737   2.602   5.940 -2.0902  0.0365 -1.1184
 6793TIP3    H220809   1.703   2.715   5.846 -0.0164  0.8697 -0.8984
 6794TIP3   OH220810   1.983   2.413   3.142 -0.1443  0.4150 -0.7293
 6794TIP3    H120811   2.023   2.345   3.088  0.4026 -0.4972  0.7929
 6794TIP3    H220812   1.891   2.389   3.146  0.0593 -0.2900 -0.1403
 6795TIP3   OH220813   4.210   3.551   0.081 -0.0715 -0.2166  0.1214
 6795TIP3    H120814   4.256   3.562   0.164 -1.4531 -0.5317  0.9451
 6795TIP3    H220815   4.187   3.458   0.078  0.9861 -0.4538 -1.1662
 6796TIP3   OH220816   3.992   4.703   5.707  0.9463  0.4178 -0.8314
 6796TIP3    H120817   3.936   4.770   5.667  1.3481 -0.0670 -2.2216
 6796TIP3    H220818   3.964   4.621   5.667  2.7377  0.1888 -1.6931
 6797TIP3   OH220819   5.201   4.991   2.081 -0.1003  0.0821 -0.5016
 6797TIP3    H120820   5.232   5.014   2.168 -1.3719  1.0478 -0.2900
 6797TIP3    H220821   5.162   4.904   2.092  1.8511 -0.8346 -0.6281
 6798TIP3   OH220822   2.941   2.417   3.936 -0.5554 -0.4862 -0.1102
 6798TIP3    H120823   3.011   2.420   4.001 -0.5393 -1.1036 -0.0966
 6798TIP3    H220824   2.876   2.357   3.973 -0.3620 -1.1598 -0.8475
 6799TIP3   OH220825   2.381   2.109   0.497  0.5667  0.0941  0.7194
 6799TIP3    H120826   2.295   2.119   0.456  1.7215  1.5234 -1.4831
 6799TIP3    H220827   2.378   2.023   0.539 -0.8596 -1.2810 -2.0469
 6800TIP3   OH220828   4.709   2.546   1.011  0.3363 -0.1506 -0.5876
 6800TIP3    H120829   4.731   2.617   1.071  0.7380  1.5559 -2.6800
 6800TIP3    H220830   4.616   2.529   1.026  0.6206 -0.2732  1.0533
 6801TIP3   OH220831   3.394   3.065   5.641 -0.1997 -0.0292  0.6392
 6801TIP3    H120832   3.312   3.104   5.673 -1.4701 -1.7785 -0.3948
 6801TIP3    H220833   3.387   2.972   5.665  1.3348 -0.2611  0.2402
 6802TIP3   OH220834   4.703   1.442   0.291 -0.6735  0.1728  0.0620
 6802TIP3    H120835   4.708   1.469   0.383  1.4387 -1.1229  0.3648
 6802TIP3    H220836   4.781   1.480   0.251 -0.2824 -1.3099 -0.6137
 6803TIP3   OH220837   0.890   2.996   0.800 -0.3499  0.0348  0.4492
 6803TIP3    H120838   0.918   3.071   0.746 -0.2472  1.0084  1.8328
 6803TIP3    H220839   0.853   2.934   0.737 -0.9909  1.4999 -0.6582
 6804TIP3   OH220840   5.742   2.447   6.080 -0.1265 -0.1678  0.1560
 6804TIP3    H120841   5.673   2.434   6.145 -1.3645  1.1931 -0.8453
 6804TIP3    H220842   5.695   2.456   5.997  1.1522  2.3704 -0.3310
 6805TIP3   OH220843   3.437   3.135   5.302  0.1913  0.5119  0.7099
 6805TIP3    H120844   3.377   3.156   5.374  0.9674 -2.4566  2.3382
 6805TIP3    H220845   3.524   3.156   5.337  0.4784  0.2182  0.1784
 6806TIP3   OH220846   4.041   3.808   0.127 -0.5058  0.3325 -0.1188
 6806TIP3    H120847   4.074   3.897   0.109  0.9195 -0.0461  0.5043
 6806TIP3    H220848   4.084   3.754   0.061 -0.7574 -0.0048 -0.0026
 6807TIP3   OH220849   3.308   4.713   5.791 -0.7493 -0.3028  0.0782
 6807TIP3    H120850   3.265   4.631   5.815  0.2244 -1.2522 -1.3340
 6807TIP3    H220851   3.253   4.750   5.723  0.0153 -0.9296 -0.8931
 6808TIP3   OH220852   4.423   2.276   0.795  0.0568  0.4870  0.0441
 6808TIP3    H120853   4.353   2.231   0.749  0.7824 -0.7181  0.0804
 6808TIP3    H220854   4.396   2.368   0.797 -1.6431  0.0027  0.3022
 6809TIP3   OH220855   0.644   4.454   1.002 -0.0021  0.6621  0.6452
 6809TIP3    H120856   0.674   4.516   0.936 -1.7715 -0.2920 -1.1225
 6809TIP3    H220857   0.720   4.438   1.058  1.5456  1.4287 -1.2147
 6810TIP3   OH220858   4.243   1.726   0.365 -0.1888 -0.2861 -0.1982
 6810TIP3    H120859   4.280   1.786   0.301 -1.1800 -0.1278 -0.6344
 6810TIP3    H220860   4.318   1.677   0.399  0.4531  0.2693 -0.8094
 6811TIP3   OH220861   2.353   2.789   5.051  0.8198 -0.3907  0.0551
 6811TIP3    H120862   2.341   2.801   5.145 -3.6173  0.9198 -0.5411
 6811TIP3    H220863   2.329   2.698   5.034 -0.4007 -0.0495 -0.0654
 6812TIP3   OH220864   2.710   3.242   4.717 -0.5505 -0.3628  0.0329
 6812TIP3    H120865   2.650   3.311   4.690 -1.5674 -1.1907  0.1295
 6812TIP3    H220866   2.707   3.245   4.813  1.7270  1.4333  0.0971
 6813TIP3   OH220867   2.874   4.457   4.072  0.1128 -0.6588 -0.2564
 6813TIP3    H120868   2.833   4.542   4.089 -0.0583 -0.4457 -1.6783
 6813TIP3    H220869   2.893   4.458   3.978  1.4147 -1.6233 -0.0139
 6814TIP3   OH220870   2.758   3.547   5.852  0.3145 -0.3063  0.2296
 6814TIP3    H120871   2.726   3.631   5.885  0.5299  0.6398 -1.9115
 6814TIP3    H220872   2.733   3.546   5.760  0.1576 -2.6818  0.2736
 6815TIP3   OH220873   0.527   5.823   0.628  0.0900 -0.3026  0.4624
 6815TIP3    H120874   0.563   5.902   0.589 -0.3553 -0.8216 -1.0677
 6815TIP3    H220875   0.601   5.762   0.632  0.2396 -0.0965  0.8559
 6816TIP3   OH220876   4.633   3.141   3.271 -0.0957  0.1213  0.4003
 6816TIP3    H120877   4.550   3.110   3.235 -0.2547  1.6953 -0.6431
 6816TIP3    H220878   4.678   3.062   3.298 -1.0658 -0.9253 -0.9457
 6817TIP3   OH220879   5.973   3.144   4.381 -0.7626 -0.0387 -0.1789
 6817TIP3    H120880   5.927   3.067   4.347  0.3231 -0.1308 -1.4497
 6817TIP3    H220881   6.065   3.129   4.359 -0.5616  1.6983 -0.6007
 6818TIP3   OH220882   4.614   2.589   0.396  0.4747  0.0422 -0.3317
 6818TIP3    H120883   4.573   2.671   0.367  0.2259  0.1196  0.2284
 6818TIP3    H220884   4.552   2.553   0.461  0.3516 -0.8253 -0.9183
 6819TIP3   OH220885   5.467   0.044   5.964  0.1881 -0.4529 -1.0150
 6819TIP3    H120886   5.540  -0.013   5.941 -0.4473 -1.1993 -1.1948
 6819TIP3    H220887   5.392   0.010   5.915 -0.8579 -1.2221  1.0628
 6820TIP3   OH220888   3.970   0.084   2.355  0.4339  0.1483 -0.3565
 6820TIP3    H120889   4.046   0.081   2.297  0.7510 -1.0751  0.1035
 6820TIP3    H220890   3.902   0.036   2.309  0.6288 -0.6640  0.1831
 6821TIP3   OH220891   3.959   2.044   2.255 -0.3768  0.0622  0.1815
 6821TIP3    H120892   3.886   2.035   2.316 -0.5143  0.2320  0.0410
 6821TIP3    H220893   4.036   2.047   2.311 -0.7207  3.3433  0.5769
 6822TIP3   OH220894   4.491   3.210   0.642  0.6841 -0.4166 -0.0203
 6822TIP3    H120895   4.587   3.213   0.642  0.7395 -1.7440 -1.1530
 6822TIP3    H220896   4.466   3.248   0.558  0.2502 -0.8577 -0.0910
 6823TIP3   OH220897   5.397   2.592   4.180  0.2903  0.0820 -0.4491
 6823TIP3    H120898   5.398   2.595   4.085  0.7611 -0.3710 -0.4620
 6823TIP3    H220899   5.450   2.515   4.202  0.1680  0.1744  0.1729
 6824TIP3   OH220900   3.624   6.012   2.798  0.6898 -0.0386 -0.1046
 6824TIP3    H120901   3.564   5.941   2.775  0.4848 -0.6622  2.2807
 6824TIP3    H220902   3.681   5.975   2.865  0.8540  1.9041  0.8636
 6825TIP3   OH220903   5.361   0.970   4.414  0.2866 -0.0786  0.0751
 6825TIP3    H120904   5.362   1.012   4.328 -1.5301  1.0800  0.5962
 6825TIP3    H220905   5.292   0.904   4.408 -0.2588  0.4182  0.8330
 6826TIP3   OH220906   4.446   5.862   3.424 -0.7689 -0.4424  0.0388
 6826TIP3    H120907   4.397   5.790   3.465 -1.1454 -1.7035 -2.5040
 6826TIP3    H220908   4.379   5.922   3.392 -0.4838  0.4466  1.0817
 6827TIP3   OH220909   0.913   1.936   5.610 -0.3678  0.1299 -0.1365
 6827TIP3    H120910   0.883   1.992   5.538  0.6812  1.2497  0.2643
 6827TIP3    H220911   0.837   1.883   5.633 -0.6531 -0.3926 -2.2108
 6828TIP3   OH220912   5.479   4.441   5.234 -0.0293  0.0565  0.4390
 6828TIP3    H120913   5.399   4.492   5.225 -0.0920  0.0370  0.8381
 6828TIP3    H220914   5.548   4.506   5.244 -0.0400  0.0703  0.4205
 6829TIP3   OH220915   5.492   2.464   0.567  0.2409  0.1254  0.3323
 6829TIP3    H120916   5.527   2.553   0.557 -1.8979  1.0291  0.6526
 6829TIP3    H220917   5.494   2.448   0.661 -1.9910  0.9553  0.5480
 6830TIP3   OH220918   3.753   4.301   5.515 -0.4631  0.7816 -0.2190
 6830TIP3    H120919   3.688   4.323   5.582  0.0216  0.8480  0.2341
 6830TIP3    H220920   3.738   4.209   5.496  1.1285  0.0403  1.9177
 6831TIP3   OH220921   5.226   3.947   4.953  0.0936 -0.5276 -0.2501
 6831TIP3    H120922   5.280   3.876   4.919 -1.0551 -0.1000 -3.1977
 6831TIP3    H220923   5.138   3.909   4.958  0.1293 -0.3691  1.6739
 6832TIP3   OH220924   4.167   4.291   5.192 -0.7800 -0.3208 -0.0903
 6832TIP3    H120925   4.113   4.311   5.269  0.8152  2.3604  0.3894
 6832TIP3    H220926   4.251   4.263   5.228 -0.5238 -0.5600 -0.8648
 6833TIP3   OH220927   1.128   4.594   2.295 -0.0262  0.0393 -0.0054
 6833TIP3    H120928   1.057   4.593   2.359  1.0084  0.5300  1.1671
 6833TIP3    H220929   1.183   4.519   2.319  0.1813  0.0261 -0.5208
 6834TIP3   OH220930   5.199   4.091   5.777 -0.3029 -0.5927 -0.7743
 6834TIP3    H120931   5.186   4.135   5.693  4.0607  2.4883  0.0138
 6834TIP3    H220932   5.250   4.012   5.754 -0.0425 -0.3170 -1.1595
 6835TIP3   OH220933   5.706   3.229   5.169 -0.3235  0.1780 -0.5637
 6835TIP3    H120934   5.698   3.142   5.130 -0.8500  0.3698 -0.8864
 6835TIP3    H220935   5.800   3.247   5.169 -0.1887 -0.4884 -0.2725
 6836TIP3   OH220936   5.190   0.730   1.069 -0.0354  0.4715 -0.2933
 6836TIP3    H120937   5.253   0.703   1.003 -0.3756 -0.1583 -0.3606
 6836TIP3    H220938   5.232   0.708   1.152 -0.7022 -1.1371 -0.3697
 6837TIP3   OH220939   4.071   1.164   0.515 -0.1402  0.1969 -0.1917
 6837TIP3    H120940   4.014   1.241   0.519  0.3125  0.5599 -0.4922
 6837TIP3    H220941   4.099   1.149   0.605 -0.5578  0.1351 -0.0731
 6838TIP3   OH220942   2.827   3.237   3.676  0.1566 -0.6473 -0.3160
 6838TIP3    H120943   2.887   3.289   3.622 -0.5736 -0.9318 -1.3997
 6838TIP3    H220944   2.817   3.154   3.630 -1.2570 -0.5182 -0.2720
 6839TIP3   OH220945   5.227   1.750   5.814 -0.0170 -0.0947  0.3860
 6839TIP3    H120946   5.197   1.661   5.835  0.4045 -0.2712  0.2394
 6839TIP3    H220947   5.239   1.750   5.719  1.6218 -0.3868  0.5912
 6840TIP3   OH220948   0.507   5.560   4.282  0.2340 -0.0233 -0.3212
 6840TIP3    H120949   0.440   5.557   4.214  1.5638  2.7617 -1.8271
 6840TIP3    H220950   0.489   5.642   4.330  2.0428  0.3340 -0.2209
 6841TIP3   OH220951   3.577   0.882   4.712  0.1964 -0.0008  0.2357
 6841TIP3    H120952   3.485   0.906   4.716  0.5750  1.3712  0.9182
 6841TIP3    H220953   3.607   0.886   4.802  1.5054  1.9729 -0.2420
 6842TIP3   OH220954   4.008   3.551   1.150 -0.0865  0.5652 -0.2156
 6842TIP3    H120955   3.934   3.497   1.179  0.5047 -1.3908 -2.2125
 6842TIP3    H220956   4.013   3.535   1.055  1.6446  2.2679 -0.4397
 6843TIP3   OH220957   3.828   3.147   1.530  0.2149  0.0447 -0.1865
 6843TIP3    H120958   3.740   3.160   1.495  0.5968 -0.1911 -1.2502
 6843TIP3    H220959   3.855   3.061   1.497  0.2771 -0.5332  1.3381
 6844TIP3   OH220960   2.429   4.685   3.983  0.2618  0.4065  0.7936
 6844TIP3    H120961   2.392   4.597   3.985  2.0507 -0.3913 -0.3380
 6844TIP3    H220962   2.433   4.712   4.075 -1.5961 -0.1113  1.0515
 6845TIP3   OH220963   5.196   2.168   3.423  0.6285 -0.3514 -0.3501
 6845TIP3    H120964   5.262   2.152   3.490 -1.0839 -0.1993  1.3930
 6845TIP3    H220965   5.143   2.089   3.422  0.6055 -0.3377 -1.5197
 6846TIP3   OH220966   5.204   4.003   1.056 -0.1703  0.1886  0.0542
 6846TIP3    H120967   5.120   3.969   1.025 -0.9977  2.2417 -0.0280
 6846TIP3    H220968   5.188   4.030   1.146  1.2088 -2.1091  1.0443
 6847TIP3   OH220969   1.890   1.583   5.126 -0.1337  0.1880 -0.5257
 6847TIP3    H120970   1.961   1.541   5.174 -0.5083  0.3757  0.1849
 6847TIP3    H220971   1.865   1.518   5.060  0.7081  0.1309 -0.7959
 6848TIP3   OH220972   1.865   5.248   5.243  0.4308  0.6166  0.7656
 6848TIP3    H120973   1.826   5.164   5.270  1.4122 -0.0551  0.1195
 6848TIP3    H220974   1.954   5.245   5.277  1.1180  0.5241 -0.9638
 6849TIP3   OH220975   4.971   3.773   4.334 -0.6737 -0.5753 -0.0724
 6849TIP3    H120976   4.940   3.685   4.311  1.2713 -1.1214 -0.7518
 6849TIP3    H220977   4.976   3.819   4.250  0.7092 -0.6439 -0.0415
 6850TIP3   OH220978   4.091   2.807   5.425  0.0519 -0.0807  0.0237
 6850TIP3    H120979   4.039   2.867   5.372 -0.0470 -0.4538 -0.3054
 6850TIP3    H220980   4.054   2.815   5.513 -0.0886  0.1968 -0.0606
 6851TIP3   OH220981   0.369   4.236   4.370  0.9338 -0.3664  0.2811
 6851TIP3    H120982   0.333   4.310   4.322 -0.2383 -1.0167  0.1349
 6851TIP3    H220983   0.464   4.247   4.364  0.7717  1.2659  0.4996
 6852TIP3   OH220984   4.874   3.426   0.083 -0.5089 -0.0491 -0.1544
 6852TIP3    H120985   4.890   3.468  -0.002  1.6683  0.3158  0.3922
 6852TIP3    H220986   4.822   3.489   0.132 -0.1811  0.5519 -0.5686
 6853TIP3   OH220987   4.540   4.309   2.050  0.3030 -1.0969 -0.5002
 6853TIP3    H120988   4.517   4.380   1.991  1.1921  0.6879  1.2511
 6853TIP3    H220989   4.498   4.232   2.012 -0.0341  0.1950 -2.8481
 6854TIP3   OH220990   5.187   3.228   5.501  0.5491  0.0002  0.2076
 6854TIP3    H120991   5.160   3.211   5.411  1.3607 -0.0582 -0.0327
 6854TIP3    H220992   5.282   3.214   5.500  0.3815 -1.2502  1.3680
 6855TIP3   OH220993   3.818   2.767   4.027  0.4546 -0.2478 -0.6042
 6855TIP3    H120994   3.835   2.832   4.095 -2.0756  3.2690 -3.1642
 6855TIP3    H220995   3.897   2.767   3.973  3.2079 -4.3010  3.0215
 6856TIP3   OH220996   4.420   0.868   0.507  0.1927 -0.1347 -0.2944
 6856TIP3    H120997   4.334   0.872   0.465  0.1088  0.5869 -0.0538
 6856TIP3    H220998   4.450   0.778   0.491 -0.5846 -0.3772 -0.4186
 6857TIP3   OH220999   4.444   5.695   1.829 -0.3435 -0.6202  0.0222
 6857TIP3    H121000   4.412   5.618   1.782 -0.8246 -0.4760  0.1170
 6857TIP3    H221001   4.516   5.727   1.775 -1.7874  0.3826 -1.3686
 6858TIP3   OH221002   3.990   3.705   0.522 -0.1721 -0.6425 -0.3951
 6858TIP3    H121003   3.973   3.795   0.494 -1.4639 -0.6329  0.3772
 6858TIP3    H221004   4.063   3.713   0.583  0.0100 -0.1716 -0.6726
 6859TIP3   OH221005   3.545   3.520   0.420 -0.4175 -0.2107 -0.8060
 6859TIP3    H121006   3.590   3.436   0.423 -1.9031 -1.0966 -2.6282
 6859TIP3    H221007   3.576   3.562   0.340  0.8035  1.2781  0.4194
 6860TIP3   OH221008   4.552   1.646   0.151 -0.0954 -0.3076 -0.0396
 6860TIP3    H121009   4.620   1.713   0.147 -0.9728  0.8535  2.7851
 6860TIP3    H221010   4.596   1.568   0.185  0.6960 -0.8659 -2.2931
 6861TIP3   OH221011   5.543   1.743   0.473  0.3556 -0.8488 -0.6696
 6861TIP3    H121012   5.551   1.674   0.407 -0.9577 -0.8513 -0.8497
 6861TIP3    H221013   5.616   1.802   0.455  1.6394 -2.2915 -0.3690
 6862TIP3   OH221014   1.885   5.218   0.742  0.3900  0.0392 -0.8253
 6862TIP3    H121015   1.825   5.144   0.735 -0.6641  0.9161 -1.4130
 6862TIP3    H221016   1.950   5.191   0.806  0.0405 -1.3987 -1.0551
 6863TIP3   OH221017   5.856   2.610   5.285  0.0704 -0.5885  0.0160
 6863TIP3    H121018   5.845   2.652   5.370 -1.2782 -0.7292 -0.0712
 6863TIP3    H221019   5.885   2.521   5.305 -0.1396 -0.5868  0.3220
 6864TIP3   OH221020   4.204   0.247   3.325 -0.7669 -0.2943 -0.3472
 6864TIP3    H121021   4.287   0.226   3.365  0.0771  0.4640 -1.6521
 6864TIP3    H221022   4.143   0.182   3.360  0.1577 -0.2975  1.3036
 6865TIP3   OH221023   4.480   4.227   1.626  0.7190 -0.6986  0.6773
 6865TIP3    H121024   4.566   4.220   1.585  0.1568 -0.7496 -0.5310
 6865TIP3    H221025   4.424   4.261   1.556 -0.1799 -0.4031  1.5350
 6866TIP3   OH221026   5.952   3.538   0.345 -0.1584  0.4109 -0.3459
 6866TIP3    H121027   5.883   3.602   0.360 -0.2626  0.4372 -0.9159
 6866TIP3    H221028   6.007   3.578   0.278  0.4668  0.4325  0.1749
 6867TIP3   OH221029   0.215   2.773   1.512  0.3533 -0.5062  0.3982
 6867TIP3    H121030   0.216   2.824   1.593  2.7266 -2.0867  1.3942
 6867TIP3    H221031   0.182   2.687   1.538  0.5979 -0.8543 -0.4333
 6868TIP3   OH221032   4.112   5.954   4.262 -0.4169 -0.4432 -0.3295
 6868TIP3    H121033   4.086   5.986   4.176 -0.5779 -2.2072 -0.9513
 6868TIP3    H221034   4.199   5.993   4.277 -1.1747  1.3491 -0.4544
 6869TIP3   OH221035   3.492   4.085   1.294  0.7130  0.0520  0.3000
 6869TIP3    H121036   3.397   4.086   1.306  0.4488 -0.0344 -1.6806
 6869TIP3    H221037   3.521   4.172   1.323  0.0426  0.0409  0.9976
 6870TIP3   OH221038   1.696   1.987   5.885  0.1920 -0.5850  0.1235
 6870TIP3    H121039   1.781   2.029   5.902 -0.5803  0.1909  2.2715
 6870TIP3    H221040   1.686   1.991   5.790  1.9734  0.4941 -0.0492
 6871TIP3   OH221041   0.531   3.610   5.969  0.2161  0.3255 -0.0556
 6871TIP3    H121042   0.567   3.543   5.912 -1.1043 -0.7343  0.3281
 6871TIP3    H221043   0.504   3.681   5.910  0.0821 -0.1925 -0.6125
 6872TIP3   OH221044   1.221   1.601   0.711 -0.3023  0.2833  0.1335
 6872TIP3    H121045   1.234   1.605   0.805  0.3834  0.1329  0.0492
 6872TIP3    H221046   1.148   1.661   0.694  0.0753  0.8975  0.6630
 6873TIP3   OH221047   4.305   3.488   4.899 -0.3659  0.1907 -0.2067
 6873TIP3    H121048   4.372   3.552   4.876 -1.1210  1.1576  0.2347
 6873TIP3    H221049   4.341   3.441   4.974  0.7639 -0.8386 -1.3642
 6874TIP3   OH221050   0.639   6.035   0.492 -0.0664 -0.2871 -0.2528
 6874TIP3    H121051   0.601   6.050   0.405  1.2522  0.3253 -0.7458
 6874TIP3    H221052   0.597   6.100   0.548 -3.5633 -2.9881  0.3951
 6875TIP3   OH221053   0.726   4.960   0.448 -0.2730 -0.2474 -0.2981
 6875TIP3    H121054   0.784   4.920   0.383  0.0470 -0.5914  0.1954
 6875TIP3    H221055   0.655   4.896   0.458  0.5394 -0.9775  0.9245
 6876TIP3   OH221056   0.429   3.466   4.791 -0.1395 -0.3219  0.4039
 6876TIP3    H121057   0.511   3.491   4.748 -0.5374 -2.1098 -1.4865
 6876TIP3    H221058   0.369   3.537   4.769  0.9137  1.1196  1.9951
 6877TIP3   OH221059   0.573   4.946   1.611 -1.3773 -0.5588 -0.5529
 6877TIP3    H121060   0.620   4.906   1.538 -0.2813 -0.7406  0.2251
 6877TIP3    H221061   0.538   5.027   1.576  0.2869  0.0116 -0.9302
 6878TIP3   OH221062   2.941   3.077   0.425  0.2396  0.3811 -0.0832
 6878TIP3    H121063   2.955   3.137   0.499  0.4503 -0.0197  0.1996
 6878TIP3    H221064   2.891   3.005   0.462 -2.4299  1.6828 -1.0239
 6879TIP3   OH221065   1.439   5.396   4.828 -0.2671  0.2330  0.6253
 6879TIP3    H121066   1.419   5.354   4.745 -0.2001  0.0563  0.6996
 6879TIP3    H221067   1.391   5.479   4.825 -1.5432 -0.4764  1.0698
 6880TIP3   OH221068   2.587   4.640   2.071  0.1740 -0.0965  0.7064
 6880TIP3    H121069   2.611   4.687   2.152 -2.3165  0.7770  1.0130
 6880TIP3    H221070   2.621   4.695   2.001  0.8605  0.0294  1.1287
 6881TIP3   OH221071   1.272   3.908   1.155 -0.2852  0.4297 -0.4369
 6881TIP3    H121072   1.261   3.821   1.194  0.1710  0.7116  0.3300
 6881TIP3    H221073   1.281   3.891   1.062 -0.4634 -0.3308 -0.3194
 6882TIP3   OH221074   0.614   4.577   0.693 -0.5505 -0.4002 -0.4040
 6882TIP3    H121075   0.653   4.490   0.702 -0.6423 -0.2380  1.8789
 6882TIP3    H221076   0.660   4.630   0.758 -1.5417  0.8874 -0.7399
 6883TIP3   OH221077   0.468   4.742   4.892 -0.9844 -0.0547  0.0095
 6883TIP3    H121078   0.463   4.818   4.950  0.1733  0.8374 -1.0438
 6883TIP3    H221079   0.377   4.713   4.883 -1.3964  1.0150  0.6689
 6884TIP3   OH221080   0.069   2.586   4.574 -0.2724  0.2826 -0.4167
 6884TIP3    H121081   0.076   2.490   4.570 -0.4361  0.1792  1.4199
 6884TIP3    H221082   0.156   2.615   4.600 -0.9523  0.4171  1.8141
 6885TIP3   OH221083   0.091   3.781   0.373 -0.4967 -0.3643  0.0139
 6885TIP3    H121084   0.132   3.862   0.403  0.5547 -0.8989  0.0565
 6885TIP3    H221085   0.016   3.769   0.431  0.5043 -0.4628  1.3134
 6886TIP3   OH221086   0.667   0.854   2.699  0.2691  0.1409 -0.3262
 6886TIP3    H121087   0.666   0.823   2.789 -1.2259 -0.0989 -0.4156
 6886TIP3    H221088   0.734   0.922   2.698 -0.5848  1.0430  1.2739
 6887TIP3   OH221089   1.206   4.307   1.964  0.1835  0.2495  0.0996
 6887TIP3    H121090   1.225   4.218   1.993  0.3398  0.1759 -0.2292
 6887TIP3    H221091   1.251   4.363   2.027  1.9625  0.0763 -0.9733
 6888TIP3   OH221092   2.040   5.019   0.868 -0.2873  0.6294  0.3891
 6888TIP3    H121093   2.094   4.946   0.900 -2.5043 -2.1423 -2.0007
 6888TIP3    H221094   1.951   4.996   0.892 -1.2138  1.7903 -1.7700
 6889TIP3   OH221095   5.999   3.391   0.022  0.0012  0.1560  0.2297
 6889TIP3    H121096   6.068   3.456   0.009 -1.1334  1.4581  0.5698
 6889TIP3    H221097   5.928   3.420  -0.036 -1.3518  0.4920  1.9907
 6890TIP3   OH221098   0.846   4.453   6.035 -0.1725  0.1329  0.3813
 6890TIP3    H121099   0.876   4.541   6.056 -0.0504 -0.4806  2.9839
 6890TIP3    H221100   0.924   4.398   6.046 -0.4603 -0.4296 -0.3306
 6891TIP3   OH221101   3.322   2.946   3.926  0.5424 -0.5754  0.0464
 6891TIP3    H121102   3.283   3.033   3.918 -0.9525 -1.0110  2.1654
 6891TIP3    H221103   3.374   2.950   4.007 -0.0262 -1.8258  0.4836
 6892TIP3   OH221104   0.036   1.006   4.480 -0.2724  0.0757  0.2671
 6892TIP3    H121105   0.068   1.032   4.566 -0.9002  0.3759  0.4106
 6892TIP3    H221106  -0.055   1.036   4.478 -0.7443 -1.3240  0.1062
 6893TIP3   OH221107   0.231   3.994   4.407 -0.2233 -0.1396 -0.2763
 6893TIP3    H121108   0.305   3.980   4.348  1.1871  1.6616  1.0193
 6893TIP3    H221109   0.218   4.088   4.408 -0.4897 -0.1808  1.9706
 6894TIP3   OH221110   5.749   2.972   5.058  0.9304 -0.1901  0.0872
 6894TIP3    H121111   5.690   2.987   4.984  1.4287  0.8670 -0.1039
 6894TIP3    H221112   5.773   2.880   5.051 -0.7775 -0.6659  0.2265
 6895TIP3   OH221113   1.554   5.364   6.050 -0.4136 -0.1756  0.1893
 6895TIP3    H121114   1.604   5.394   5.975 -1.2659  0.3634 -0.1782
 6895TIP3    H221115   1.498   5.439   6.073 -2.4998 -1.4151 -0.6757
 6896TIP3   OH221116   2.733   2.558   0.611 -0.2805 -0.9343 -0.7913
 6896TIP3    H121117   2.792   2.628   0.639 -0.2473 -2.0268  2.0207
 6896TIP3    H221118   2.653   2.602   0.585  0.0001  0.1982  0.2424
 6897TIP3   OH221119   1.204   4.016   5.252  0.0669 -0.2394  0.0912
 6897TIP3    H121120   1.126   4.012   5.198 -0.6116  0.6526  0.9844
 6897TIP3    H221121   1.233   4.107   5.245  1.1295 -0.6003 -0.3681
 6898TIP3   OH221122   2.363   5.801   0.011  0.6462 -0.3235  0.2293
 6898TIP3    H121123   2.448   5.803   0.057  1.3421  1.6959 -1.0635
 6898TIP3    H221124   2.298   5.808   0.081  1.5298 -1.9880  1.2469
 6899TIP3   OH221125   0.995   4.447   1.612  0.1674  0.5917  0.3440
 6899TIP3    H121126   1.085   4.464   1.642  0.4252  0.0695 -0.1321
 6899TIP3    H221127   0.956   4.395   1.683  0.0998  1.1881  0.7496
 6900TIP3   OH221128   2.222   5.552   5.979  0.6864 -0.0853 -0.2056
 6900TIP3    H121129   2.271   5.472   5.962 -0.2920 -0.3640 -1.8331
 6900TIP3    H221130   2.283   5.622   5.957  1.2134 -0.3990  0.2499
 6901TIP3   OH221131   0.322   3.227   5.968 -0.4138 -0.0868 -0.4070
 6901TIP3    H121132   0.357   3.138   5.973 -0.4312 -0.0449  0.5227
 6901TIP3    H221133   0.241   3.224   6.018  0.5094  0.8922  1.1756
 6902TIP3   OH221134   5.112   0.228   0.826 -0.1716  0.7282  0.6084
 6902TIP3    H121135   5.056   0.211   0.901 -1.9804  0.8191 -0.6999
 6902TIP3    H221136   5.137   0.141   0.794  1.2748  0.6942  1.7905
 6903TIP3   OH221137   5.616   5.902   0.214 -0.7669 -0.2754 -0.1185
 6903TIP3    H121138   5.620   5.867   0.125 -0.8916  0.6724 -0.5016
 6903TIP3    H221139   5.597   5.826   0.269 -2.7293 -0.5409 -1.1284
 6904TIP3   OH221140   1.944   3.325   0.121  0.6035 -0.0083 -0.3898
 6904TIP3    H121141   1.938   3.234   0.151  0.0693  0.6220  1.4275
 6904TIP3    H221142   2.037   3.339   0.105  0.8606 -0.4456  0.6978
 6905TIP3   OH221143   4.912   4.214   5.784  0.3355  0.2981 -0.5035
 6905TIP3    H121144   4.856   4.274   5.735 -0.6122 -0.6126 -0.5546
 6905TIP3    H221145   4.970   4.271   5.834 -2.5617  1.3363  1.8010
 6906TIP3   OH221146   3.328   5.130   0.842 -0.0212 -0.0900  0.6618
 6906TIP3    H121147   3.375   5.088   0.914 -0.2172 -0.7775  0.3905
 6906TIP3    H221148   3.245   5.159   0.880 -0.7427 -1.7529  0.3622
 6907TIP3   OH221149   0.543   4.742   0.485  0.4122 -0.5565  0.5567
 6907TIP3    H121150   0.574   4.691   0.560 -0.3408 -0.2496  1.0803
 6907TIP3    H221151   0.455   4.708   0.468  0.4964 -0.4734 -0.0497
 6908TIP3   OH221152   3.155   0.307   0.818 -0.0032  0.2907  0.5527
 6908TIP3    H121153   3.178   0.286   0.908 -0.6685 -0.4944  0.5471
 6908TIP3    H221154   3.066   0.271   0.808  0.2452 -0.0165 -0.5448
 6909TIP3   OH221155   2.570   2.489   4.264  0.0910  0.7742  0.5804
 6909TIP3    H121156   2.655   2.533   4.277 -0.2203  1.5473  0.0266
 6909TIP3    H221157   2.547   2.457   4.351  0.2445  1.8748  1.0432
 6910TIP3   OH221158   1.287   3.474   4.644 -0.6693 -0.1729  0.0817
 6910TIP3    H121159   1.338   3.497   4.721 -1.1173  1.8181 -0.1889
 6910TIP3    H221160   1.351   3.442   4.580 -0.1082 -0.2515  0.6871
 6911TIP3   OH221161   4.629   4.239   5.402 -0.2050  0.2673 -0.2928
 6911TIP3    H121162   4.705   4.181   5.402 -0.2750  0.1531  0.9579
 6911TIP3    H221163   4.575   4.209   5.329  0.3358 -0.4626 -0.3948
 6912TIP3   OH221164   0.183   4.330   5.398 -0.5802 -0.3897  0.0993
 6912TIP3    H121165   0.265   4.288   5.425 -0.5863 -1.2037 -1.1194
 6912TIP3    H221166   0.137   4.263   5.347 -0.8815  0.8736 -1.3389
 6913TIP3   OH221167   2.669   4.866   5.478 -0.0017 -0.3105  0.3224
 6913TIP3    H121168   2.611   4.927   5.434 -2.0736 -1.2868  1.6047
 6913TIP3    H221169   2.684   4.905   5.564  1.2352 -0.0858  0.0154
 6914TIP3   OH221170   2.194   1.086   2.799  0.0903  0.3697  0.1340
 6914TIP3    H121171   2.190   1.122   2.888  0.3796 -1.8954  1.0831
 6914TIP3    H221172   2.107   1.102   2.763 -1.5320 -2.7207  2.4645
 6915TIP3   OH221173   3.117   3.490   0.203 -0.3809  0.2802  0.5089
 6915TIP3    H121174   3.097   3.447   0.120  0.5494  1.7802 -0.5303
 6915TIP3    H221175   3.159   3.422   0.256  2.2677  0.1736 -1.5772
 6916TIP3   OH221176   0.738   3.089   1.013 -1.0615 -0.1288 -0.2726
 6916TIP3    H121177   0.805   3.055   1.073 -0.2793  0.2685 -0.9120
 6916TIP3    H221178   0.777   3.080   0.926 -1.3948  1.0979 -0.5628
 6917TIP3   OH221179   0.800   5.712   4.226 -0.1718  0.3057 -0.0854
 6917TIP3    H121180   0.739   5.649   4.265  0.3645  0.3896  0.9183
 6917TIP3    H221181   0.818   5.678   4.139  0.3182 -1.0858  0.5445
 6918TIP3   OH221182   0.470   3.182   0.119  0.2476  0.3036  0.1488
 6918TIP3    H121183   0.402   3.115   0.109  0.1076  0.4053  0.4257
 6918TIP3    H221184   0.424   3.259   0.154  0.2439  0.8376 -1.0112
 6919TIP3   OH221185   1.684   2.543   4.340  0.0641  0.3447 -0.0261
 6919TIP3    H121186   1.644   2.456   4.341 -0.9125  0.8109  1.5277
 6919TIP3    H221187   1.629   2.594   4.281  0.0991  0.1855 -0.1997
 6920TIP3   OH221188   1.053   5.135   6.093 -0.1871 -0.3447 -0.4622
 6920TIP3    H121189   1.005   5.217   6.082 -0.5798 -0.6481 -0.9880
 6920TIP3    H221190   1.007   5.072   6.039  0.1055 -0.9255 -0.0426
 6921TIP3   OH221191   1.761   0.581   4.545  0.5442  0.0757  0.6354
 6921TIP3    H121192   1.841   0.554   4.501  0.2190 -0.0141  0.0911
 6921TIP3    H221193   1.734   0.660   4.498  0.6273  0.4357  1.1887
 6922TIP3   OH221194   5.645   5.628   5.021 -0.2419  0.0306 -0.4133
 6922TIP3    H121195   5.565   5.594   5.061  0.0433  1.0946  1.0987
 6922TIP3    H221196   5.710   5.625   5.091  0.2304  2.0693 -0.7354
 6923TIP3   OH221197   5.941   3.376   5.709 -0.2949  0.0329 -0.1958
 6923TIP3    H121198   5.919   3.367   5.616  1.6093  1.5152 -0.8257
 6923TIP3    H221199   6.036   3.388   5.710 -0.3960  0.8058  1.8839
 6924TIP3   OH221200   5.811   5.398   6.049 -0.2970  0.4108 -0.2384
 6924TIP3    H121201   5.787   5.337   6.119  0.2948  0.3266 -0.1114
 6924TIP3    H221202   5.826   5.481   6.093  0.0975  0.3528 -0.2659
 6925TIP3   OH221203   4.169   5.214   5.283  0.1973  0.4574  0.0657
 6925TIP3    H121204   4.181   5.174   5.197  0.3831 -0.8000  0.6591
 6925TIP3    H221205   4.094   5.168   5.321  0.2038  0.9035  0.6280
 6926TIP3   OH221206   6.016   4.402   0.096  0.3968 -0.5634 -0.3767
 6926TIP3    H121207   6.047   4.492   0.095  2.8117 -1.3594 -2.7937
 6926TIP3    H221208   5.951   4.398   0.026  1.0838 -0.9700 -0.9893
 6927TIP3   OH221209   1.943   2.115   5.942  0.1732  0.0375 -0.5802
 6927TIP3    H121210   1.939   2.169   6.022 -0.7329 -0.3473 -0.3586
 6927TIP3    H221211   2.019   2.148   5.895  1.5486 -0.6590  1.1215
 6928TIP3   OH221212   1.352   3.553   0.100 -0.1552 -0.7850  0.2014
 6928TIP3    H121213   1.261   3.541   0.126  0.1305 -1.2513  1.0084
 6928TIP3    H221214   1.364   3.494   0.026 -1.0036  0.6191 -1.0702
 6929TIP3   OH221215   2.202   2.581   4.834 -0.2935 -0.1146 -0.1658
 6929TIP3    H121216   2.159   2.503   4.801 -1.7784 -0.0763  1.5881
 6929TIP3    H221217   2.295   2.558   4.836 -0.7536 -1.9878  0.7233
 6930TIP3   OH221218   3.122   2.720   4.640  0.0381 -0.2928 -0.0294
 6930TIP3    H121219   3.074   2.794   4.679  0.9826  0.2023  0.2050
 6930TIP3    H221220   3.180   2.761   4.576  0.7855 -0.8086  0.3187
 6931TIP3   OH221221   3.168   3.152   0.145  0.3720 -0.7318  0.1433
 6931TIP3    H121222   3.123   3.117   0.221 -1.9232 -2.4975 -1.9636
 6931TIP3    H221223   3.107   3.216   0.108  0.6969 -1.2058 -1.2380
 6932TIP3   OH221224   2.349   3.370   0.452  0.2015  0.1371  0.9657
 6932TIP3    H121225   2.368   3.464   0.455  1.3120 -0.0067 -0.6990
 6932TIP3    H221226   2.435   3.329   0.447 -0.2811 -0.9828  1.7820
 6933TIP3   OH221227   3.878   5.838   4.262  0.3572  0.0196 -0.3595
 6933TIP3    H121228   3.902   5.762   4.315  1.0831 -0.3415 -1.2054
 6933TIP3    H221229   3.954   5.896   4.268  0.5228 -0.1160 -1.1838
 6934TIP3   OH221230   3.550   0.408   4.927  0.1210 -0.2084  0.4238
 6934TIP3    H121231   3.586   0.322   4.906 -0.2780 -0.0599 -0.9357
 6934TIP3    H221232   3.626   0.464   4.939  0.3706 -0.5388  0.3886
 6935TIP3   OH221233   6.083   5.830   3.043  0.1222 -0.1089  0.0970
 6935TIP3    H121234   6.003   5.821   3.095  1.0364 -2.6901  1.1323
 6935TIP3    H221235   6.142   5.880   3.099  0.7105 -1.9142  1.1228
 6936TIP3   OH221236   4.245   3.529   4.281  0.1591 -0.0794 -0.1654
 6936TIP3    H121237   4.174   3.503   4.339 -0.0295 -0.2215 -0.4612
 6936TIP3    H221238   4.202   3.554   4.199  0.2824  1.6615  0.2769
 6937TIP3   OH221239   3.244   4.040   4.791  0.7725  0.2834  0.1048
 6937TIP3    H121240   3.302   4.108   4.824  0.2693 -0.3377  2.3837
 6937TIP3    H221241   3.228   3.983   4.867 -0.8612 -0.9167 -1.0916
 6938TIP3   OH221242   0.208   2.922   0.452  0.4245  0.0710 -0.0357
 6938TIP3    H121243   0.147   2.919   0.378  0.3616 -0.5144  0.0371
 6938TIP3    H221244   0.277   2.982   0.424  0.1951  0.1639 -0.4078
 6939TIP3   OH221245   1.110   2.272   4.418 -0.0601  1.1086  0.4912
 6939TIP3    H121246   1.119   2.329   4.342  0.4508  0.1348 -0.1934
 6939TIP3    H221247   1.033   2.218   4.399  0.0385  0.8951  0.6929
 6940TIP3   OH221248   1.531   5.293   5.068  0.1684 -0.9553  0.3457
 6940TIP3    H121249   1.516   5.336   4.983 -2.3987 -0.4062  1.0353
 6940TIP3    H221250   1.542   5.200   5.046  0.5611 -0.6725 -0.6818
 6941TIP3   OH221251   1.471   4.244   4.107 -0.0215  0.4754 -0.6207
 6941TIP3    H121252   1.554   4.286   4.129  0.4746 -1.3900  1.2634
 6941TIP3    H221253   1.495   4.177   4.043  0.3028 -1.4354  1.4391
 6942TIP3   OH221254   3.298   1.212   4.709 -0.0391  0.8443  0.7145
 6942TIP3    H121255   3.296   1.118   4.691  1.0054  1.0683 -0.7136
 6942TIP3    H221256   3.211   1.243   4.684 -0.8933  0.0473  2.5823
 6943TIP3   OH221257   0.064   5.991   5.477 -0.2212  0.0770  0.1890
 6943TIP3    H121258   0.082   5.934   5.402 -0.3654 -0.8323  0.8440
 6943TIP3    H221259   0.013   6.063   5.440  0.4518  0.0795 -0.7480
 6944TIP3   OH221260   3.993   4.828   0.033  0.0240  0.6917  0.3318
 6944TIP3    H121261   3.985   4.917   0.067 -0.7515  0.9766 -0.5698
 6944TIP3    H221262   3.903   4.797   0.028  0.1187  0.6828 -1.5194
 6945TIP3   OH221263   4.405   0.708   4.993 -0.0435 -0.1644  0.3542
 6945TIP3    H121264   4.320   0.743   4.967  0.3392  0.2493 -0.3693
 6945TIP3    H221265   4.417   0.631   4.936 -0.1208 -0.4676  0.7470
 6946TIP3   OH221266   3.344   5.334   5.866  1.0176  0.1735 -0.2558
 6946TIP3    H121267   3.314   5.421   5.891  0.2156  0.4910 -2.2209
 6946TIP3    H221268   3.365   5.291   5.948  0.7529  1.9897  0.7762
 6947TIP3   OH221269   2.976   5.941   0.668  0.2548  0.1050 -0.1616
 6947TIP3    H121270   2.922   5.980   0.600 -0.6188 -0.6520  0.0934
 6947TIP3    H221271   2.921   5.943   0.746  1.3981  1.3607  0.6379
 6948TIP3   OH221272   2.579   2.169   1.748  0.5453  0.1141 -0.0315
 6948TIP3    H121273   2.503   2.162   1.689  0.5469  1.0624 -0.1546
 6948TIP3    H221274   2.598   2.078   1.773  0.6360 -0.3080 -1.6007
 6949TIP3   OH221275   0.662   6.010   4.512  0.1736 -0.4084 -0.2355
 6949TIP3    H121276   0.596   6.053   4.567 -0.4221  0.0617 -1.2850
 6949TIP3    H221277   0.613   5.944   4.463  0.5780 -0.4161 -0.6336
 6950TIP3   OH221278   3.964   4.470   5.606 -0.3129 -0.4064 -0.4291
 6950TIP3    H121279   4.035   4.454   5.544 -0.9962 -1.3851 -0.9723
 6950TIP3    H221280   3.901   4.400   5.588 -1.6441  0.7571 -0.2930
 6951TIP3   OH221281   2.638   2.322   1.298  0.0131  0.2512 -0.6690
 6951TIP3    H121282   2.578   2.247   1.309  0.2311 -0.0484 -1.5289
 6951TIP3    H221283   2.635   2.341   1.205  2.3052 -0.6270 -0.9587
 6952TIP3   OH221284   2.466   1.200   0.745 -0.0672 -0.5460  0.0270
 6952TIP3    H121285   2.434   1.189   0.834 -0.8782  1.7914  0.0475
 6952TIP3    H221286   2.389   1.191   0.690 -0.0019  0.5554 -0.2523
 6953TIP3   OH221287   2.293   3.545   2.558 -0.3028  0.7084 -0.2688
 6953TIP3    H121288   2.353   3.547   2.483 -0.3319 -0.3601 -0.3316
 6953TIP3    H221289   2.296   3.454   2.588 -1.6639  0.7199 -0.0815
 6954TIP3   OH221290   2.369   0.384   0.347 -0.4648 -0.6253  0.3041
 6954TIP3    H121291   2.462   0.376   0.328 -0.3082 -0.5353  1.0169
 6954TIP3    H221292   2.327   0.392   0.261  0.2927  0.5457  0.0288
 6955TIP3   OH221293   4.439   0.080   2.727 -0.9904  0.5658  0.3831
 6955TIP3    H121294   4.529   0.086   2.694 -0.3503 -0.9131  1.8029
 6955TIP3    H221295   4.414   0.171   2.744  0.5667  0.9306  0.8526
 6956TIP3   OH221296   0.941   2.685   0.402 -0.0713  0.1051 -0.2886
 6956TIP3    H121297   0.881   2.691   0.327 -0.5135 -0.8416 -0.0201
 6956TIP3    H221298   1.028   2.680   0.363  0.0830  3.8809 -0.6551
 6957TIP3   OH221299   0.139   1.861   4.694 -0.4312  0.3271  0.4972
 6957TIP3    H121300   0.124   1.865   4.600 -0.9787  1.4053  0.6207
 6957TIP3    H221301   0.234   1.869   4.703 -0.2859 -0.7719 -0.0081
 6958TIP3   OH221302   4.143   5.099   1.015 -0.4121 -0.4462  0.3140
 6958TIP3    H121303   4.080   5.092   0.943  1.2847  0.3860 -1.3108
 6958TIP3    H221304   4.212   5.157   0.980  0.3102  0.1862  2.7108
 6959TIP3   OH221305   3.352   3.496   4.001 -0.1285  0.4695 -0.2821
 6959TIP3    H121306   3.416   3.434   4.036 -2.0839 -1.8593 -0.5954
 6959TIP3    H221307   3.349   3.567   4.064  1.3903 -0.3195  0.6925
 6960TIP3   OH221308   1.663   5.242   3.659  0.1248  0.3485 -0.6933
 6960TIP3    H121309   1.652   5.182   3.585  0.2068 -0.9464  0.3189
 6960TIP3    H221310   1.679   5.184   3.734  0.1788  1.6452  0.3086
 6961TIP3   OH221311   2.075   0.160   0.299  0.2415  0.3320  0.5914
 6961TIP3    H121312   2.073   0.152   0.203  1.2199 -1.3326  0.7025
 6961TIP3    H221313   2.037   0.247   0.316 -0.1857  0.5388 -1.2833
 6962TIP3   OH221314   5.128   2.858   5.927  0.0788  0.1981 -0.0017
 6962TIP3    H121315   5.104   2.944   5.962  0.2312 -0.3172  1.4012
 6962TIP3    H221316   5.046   2.823   5.891  0.3546  1.5984 -2.0783
 6963TIP3   OH221317   2.942   4.494   1.407  0.0886 -0.0423 -0.1182
 6963TIP3    H121318   2.970   4.438   1.480 -0.1798 -0.8510 -0.6315
 6963TIP3    H221319   3.008   4.564   1.404 -0.0921  0.1803  1.1099
 6964TIP3   OH221320   4.436   6.076   4.865  0.3734  0.0102  0.2503
 6964TIP3    H121321   4.371   6.048   4.930  0.5865 -1.2107 -0.0516
 6964TIP3    H221322   4.514   6.095   4.917 -0.5263  2.5953  0.7499
 6965TIP3   OH221323   2.626   0.575   4.896 -0.3424 -0.2151 -0.0265
 6965TIP3    H121324   2.583   0.596   4.979 -0.9196  0.4803 -0.4920
 6965TIP3    H221325   2.613   0.481   4.885  0.4817 -0.4692  1.0891
 6966TIP3   OH221326   3.454   5.136   0.590  0.1419 -0.1910  0.3701
 6966TIP3    H121327   3.440   5.044   0.570 -2.4370  0.5148 -1.3342
 6966TIP3    H221328   3.410   5.149   0.674 -0.9799 -0.1625 -0.2106
 6967TIP3   OH221329   2.243   5.481   4.979  0.0550 -0.3542  0.2213
 6967TIP3    H121330   2.169   5.537   4.957 -0.6398 -0.8567  1.2598
 6967TIP3    H221331   2.235   5.406   4.920 -0.3383 -0.4858  0.4481
 6968TIP3   OH221332   5.672   3.557   5.291 -0.0786  0.1694  0.4673
 6968TIP3    H121333   5.640   3.575   5.203  0.4868 -2.8722 -0.4408
 6968TIP3    H221334   5.627   3.620   5.347 -3.1862 -0.1896 -1.5198
 6969TIP3   OH221335   3.298   0.940   4.725  0.2896  0.2771 -0.3052
 6969TIP3    H121336   3.274   0.969   4.813  0.1792 -1.0535  0.1092
 6969TIP3    H221337   3.254   0.856   4.715  2.0708 -0.6087 -0.8060
 6970TIP3   OH221338   2.566   2.922   4.929 -0.0911  0.5433  0.7651
 6970TIP3    H121339   2.506   2.855   4.963  1.2529 -0.8863  0.3549
 6970TIP3    H221340   2.560   2.914   4.834  1.7425 -0.5145  0.7260
 6971TIP3   OH221341   3.658   5.114   4.394  0.0571  0.0461  0.2228
 6971TIP3    H121342   3.740   5.142   4.353 -1.3964  1.8094 -1.5885
 6971TIP3    H221343   3.667   5.137   4.486  2.5314 -1.9757  0.5184
 6972TIP3   OH221344   2.974   2.955   4.413  0.0653 -0.0501 -0.0366
 6972TIP3    H121345   2.979   3.018   4.485  2.2785  1.1923 -1.2299
 6972TIP3    H221346   2.893   2.978   4.366 -0.0962  0.7234  0.6021
 6973TIP3   OH221347   1.583   4.720   0.378 -0.4082  0.0835  0.5280
 6973TIP3    H121348   1.498   4.744   0.341  0.3895 -0.2628 -1.5825
 6973TIP3    H221349   1.601   4.788   0.443 -1.0498  1.7515 -0.9853
 6974TIP3   OH221350   5.926   3.416   0.650 -0.1725 -0.2460 -0.5637
 6974TIP3    H121351   5.896   3.379   0.567  0.5986 -0.1997 -0.8645
 6974TIP3    H221352   6.010   3.373   0.666 -1.6737 -2.4524  1.6717
 6975TIP3   OH221353   2.495   5.602   5.113 -0.5296 -0.2286  0.2073
 6975TIP3    H121354   2.531   5.513   5.107  0.0618  0.0605 -0.5661
 6975TIP3    H221355   2.459   5.607   5.201  0.4507 -0.8576  0.6512
 6976TIP3   OH221356   3.213   2.965   4.288 -0.3291 -0.4861  0.1524
 6976TIP3    H121357   3.127   2.943   4.325  0.0651  2.1653  2.8357
 6976TIP3    H221358   3.195   3.035   4.226 -0.2471 -0.7627 -0.1840
 6977TIP3   OH221359   3.796   3.379   1.304 -0.0036 -0.1472 -0.1433
 6977TIP3    H121360   3.828   3.312   1.243 -0.2169 -0.5796  0.2108
 6977TIP3    H221361   3.723   3.336   1.350 -0.1738  0.3459  0.0521
 6978TIP3   OH221362   3.584   3.291   4.824  0.1790 -0.1488 -0.0021
 6978TIP3    H121363   3.564   3.384   4.832  0.3196 -0.0277 -1.0133
 6978TIP3    H221364   3.660   3.287   4.766 -0.8153 -0.9895 -1.2659
 6979TIP3   OH221365   2.625   0.975   0.689  0.4832 -0.2242  0.0860
 6979TIP3    H121366   2.574   0.916   0.635  1.1649  0.9592 -1.8812
 6979TIP3    H221367   2.570   1.053   0.698  1.1002  0.2635 -0.3534
 6980TIP3   OH221368   5.218   4.742   0.009 -0.6796  0.7408  0.2750
 6980TIP3    H121369   5.188   4.663   0.054 -1.3733 -0.4449 -2.1736
 6980TIP3    H221370   5.140   4.775  -0.035  0.1915  1.2602 -0.9159
 6981TIP3   OH221371   5.719   0.688   0.145 -0.3922  0.0495 -0.2747
 6981TIP3    H121372   5.753   0.776   0.160 -0.8909  0.6795 -2.6243
 6981TIP3    H221373   5.630   0.690   0.181 -0.3855  0.5101 -0.2848
 6982TIP3   OH221374   2.420   4.088   4.553 -0.3010  0.6066  0.5399
 6982TIP3    H121375   2.458   4.003   4.533 -0.9663  0.2423  0.8116
 6982TIP3    H221376   2.419   4.092   4.649  0.7422  1.3768  0.5190
 6983TIP3   OH221377   4.203   4.264   5.716  0.8517 -0.1429 -0.4455
 6983TIP3    H121378   4.286   4.229   5.749  0.6423 -1.6433 -1.4626
 6983TIP3    H221379   4.220   4.358   5.705  2.0751 -0.2450  0.3621
 6984TIP3   OH221380   0.903   3.174   5.760 -0.2492 -0.8750 -0.1174
 6984TIP3    H121381   0.953   3.118   5.700 -2.6286 -1.0245 -2.0263
 6984TIP3    H221382   0.851   3.113   5.812  1.3468 -0.7091  1.7384
 6985TIP3   OH221383   0.079   6.052   0.688 -0.1351  0.5157  0.1566
 6985TIP3    H121384   0.102   5.996   0.762 -1.2884 -0.3419 -0.1184
 6985TIP3    H221385   0.073   6.140   0.726 -2.0653 -0.1151  1.3811
 6986TIP3   OH221386   4.843   5.220   4.614  0.6499  0.3504 -0.1473
 6986TIP3    H121387   4.759   5.182   4.640 -0.2866  1.6508 -1.1500
 6986TIP3    H221388   4.854   5.193   4.523  1.4266  0.0277  0.0375
 6987TIP3   OH221389   5.870   2.228   5.659  0.2202 -0.0440 -0.8088
 6987TIP3    H121390   5.838   2.318   5.654 -0.3472 -0.3081 -2.4236
 6987TIP3    H221391   5.814   2.187   5.724 -0.5603  0.3698 -1.2063
 6988TIP3   OH221392   3.450   5.679   5.236  0.0953 -0.6686  0.2928
 6988TIP3    H121393   3.539   5.703   5.213 -0.0559  0.6302  1.0027
 6988TIP3    H221394   3.421   5.748   5.295 -1.4106 -1.0250 -0.0001
 6989TIP3   OH221395   5.985   4.059   1.189  0.2670 -0.2492 -0.1459
 6989TIP3    H121396   6.024   3.972   1.188 -1.9774 -1.2941  1.1569
 6989TIP3    H221397   5.924   4.059   1.115 -1.6533 -0.7146  1.4015
 6990TIP3   OH221398   5.308   5.133   0.388 -0.1808  0.2475  0.6408
 6990TIP3    H121399   5.284   5.213   0.341  1.5001  0.3649 -0.0437
 6990TIP3    H221400   5.285   5.063   0.327  1.3931  0.3727 -0.1381
 6991TIP3   OH221401   4.477   5.718   0.602 -0.4327 -0.1945 -0.1732
 6991TIP3    H121402   4.510   5.775   0.672 -1.0416 -0.7769  0.5863
 6991TIP3    H221403   4.531   5.742   0.526 -0.7076  1.4339  0.1118
 6992TIP3   OH221404   2.740   0.162   4.742 -0.1047 -0.2777  0.0021
 6992TIP3    H121405   2.802   0.092   4.761 -0.0820 -0.2449  0.0466
 6992TIP3    H221406   2.780   0.210   4.669 -1.0521 -1.5089 -1.3435
 6993TIP3   OH221407   5.636   4.224   4.119 -0.4332  1.2338  0.1986
 6993TIP3    H121408   5.681   4.292   4.070 -0.8845  1.3162 -0.1048
 6993TIP3    H221409   5.705   4.180   4.168  0.6518 -1.3391 -3.4224
 6994TIP3   OH221410   0.148   4.523   5.165  0.7619  0.2316  0.8631
 6994TIP3    H121411   0.138   4.456   5.233  1.6199 -0.7863 -0.0019
 6994TIP3    H221412   0.062   4.526   5.122 -0.7975  3.0937  3.9457
 6995TIP3   OH221413   4.772   4.389   5.626 -0.2986 -0.3115 -0.1826
 6995TIP3    H121414   4.723   4.355   5.551 -1.5443 -1.1573  0.9968
 6995TIP3    H221415   4.797   4.477   5.599 -0.4013 -0.7355 -1.7475
 6996TIP3   OH221416   6.093   1.835   1.031 -0.0253 -0.2479  0.5028
 6996TIP3    H121417   6.060   1.779   1.101 -0.3987 -2.0104 -1.0709
 6996TIP3    H221418   6.017   1.887   1.004  0.1648  0.5788  1.4987
 6997TIP3   OH221419   4.187   4.611   1.337 -0.1747  0.0483  0.9646
 6997TIP3    H121420   4.205   4.705   1.348 -0.3670 -0.0118  1.7853
 6997TIP3    H221421   4.161   4.603   1.245 -1.1927  0.9738  1.1558
 6998TIP3   OH221422   4.881   5.311   0.745 -0.8733 -1.0852 -0.2814
 6998TIP3    H121423   4.857   5.390   0.794 -2.9459 -1.7215 -0.2565
 6998TIP3    H221424   4.889   5.341   0.654  0.7365 -0.3755  0.0680
 6999TIP3   OH221425   2.961   5.056   1.673  0.1940 -0.1463 -0.9857
 6999TIP3    H121426   2.904   5.019   1.605  0.1253 -2.4174  0.2620
 6999TIP3    H221427   3.037   5.089   1.624 -0.4841 -0.4557 -2.2912
 7000TIP3   OH221428   3.232   4.958   4.975 -0.4423 -0.2822  0.3573
 7000TIP3    H121429   3.165   4.905   5.018  0.5025 -0.9494  1.0202
 7000TIP3    H221430   3.284   4.896   4.925 -0.5790  0.2942 -0.5178
 7001TIP3   OH221431   5.305   4.766   1.028 -0.2157 -0.4072 -0.4326
 7001TIP3    H121432   5.372   4.766   0.959 -0.1109 -1.3582 -0.3426
 7001TIP3    H221433   5.347   4.722   1.102 -0.5558  0.0142  0.0105
 7002TIP3   OH221434   0.789   3.893   0.930  0.6805  0.8124  0.0471
 7002TIP3    H121435   0.719   3.925   0.987  0.8134  1.6266 -0.2407
 7002TIP3    H221436   0.848   3.969   0.919  0.1013  0.9826 -2.0266
 7003TIP3   OH221437   4.494   4.068   1.044  0.2490 -0.2304  0.5346
 7003TIP3    H121438   4.419   4.010   1.026 -1.5259  1.4598  2.3302
 7003TIP3    H221439   4.526   4.039   1.129  1.4682 -0.7358 -0.0872
 7004TIP3   OH221440   4.116   3.270   0.366 -0.0851  0.3608 -0.2490
 7004TIP3    H121441   4.091   3.359   0.338 -0.0810  0.4592  0.0630
 7004TIP3    H221442   4.085   3.264   0.456  2.5225  1.0871  0.7359
 7005TIP3   OH221443   2.602   6.080   4.440 -0.2892 -0.2398  0.3869
 7005TIP3    H121444   2.684   6.095   4.487 -1.5050 -0.0541  2.4812
 7005TIP3    H221445   2.539   6.056   4.507 -1.9795 -0.3907 -1.1968
 7006TIP3   OH221446   4.351   4.501   0.213  0.1625 -0.0719 -0.3161
 7006TIP3    H121447   4.317   4.425   0.259  0.3210 -0.9588 -1.6182
 7006TIP3    H221448   4.304   4.575   0.251  1.1969 -0.6330  2.1001
 7007TIP3   OH221449   2.903   2.590   4.910  0.6053  0.3317  0.2671
 7007TIP3    H121450   2.990   2.572   4.946  1.5499  2.3322 -0.9633
 7007TIP3    H221451   2.891   2.684   4.920 -1.4346  0.0966  0.3839
 7008TIP3   OH221452   5.790   2.714   4.013 -0.2233 -0.8926 -0.2281
 7008TIP3    H121453   5.719   2.707   4.077 -0.4704 -1.2720 -0.5429
 7008TIP3    H221454   5.770   2.794   3.964  1.2726  0.7376  1.7524
 7009TIP3   OH221455   3.695   3.763   5.448  0.0154  0.7123  0.0734
 7009TIP3    H121456   3.670   3.681   5.405 -0.6991  0.8385  0.2410
 7009TIP3    H221457   3.680   3.747   5.542  0.4689  0.8247  0.1660
 7010TIP3   OH221458   3.811   3.548   0.711 -0.2995 -0.0488  0.7233
 7010TIP3    H121459   3.840   3.572   0.623  2.5598  1.4293  2.0068
 7010TIP3    H221460   3.779   3.458   0.702  2.5098 -0.9197 -1.2865
 7011TIP3   OH221461   3.604   5.822   1.468  0.0965 -0.4509  0.5010
 7011TIP3    H121462   3.588   5.730   1.447  1.2339 -0.6952  0.6824
 7011TIP3    H221463   3.633   5.821   1.559  1.2232 -0.0324  0.1531
 7012TIP3   OH221464   4.275   5.174   3.499  0.4061 -0.1356 -0.7553
 7012TIP3    H121465   4.308   5.096   3.542 -0.2136 -0.8010 -1.4711
 7012TIP3    H221466   4.236   5.142   3.418  1.1888  1.0607 -1.6037
 7013TIP3   OH221467   5.444   0.884   5.274 -0.6950  0.3325 -0.2088
 7013TIP3    H121468   5.426   0.946   5.204 -0.4514 -0.7733 -1.2583
 7013TIP3    H221469   5.487   0.811   5.231  2.5543  1.0878  1.5976
 7014TIP3   OH221470   3.184   5.078   4.296  0.4219 -0.1647 -0.2576
 7014TIP3    H121471   3.236   5.024   4.237 -0.3473 -0.9119 -0.2692
 7014TIP3    H221472   3.188   5.033   4.380 -1.1307 -0.8642 -0.5317
 7015TIP3   OH221473   4.421   4.449   6.049  0.8178 -0.3296  0.3240
 7015TIP3    H121474   4.392   4.437   6.140 -1.1820 -1.8741 -0.5011
 7015TIP3    H221475   4.455   4.539   6.047  1.2099 -0.3894  2.6702
 7016TIP3   OH221476   4.581   5.865   0.801  0.0006  0.3989  0.7496
 7016TIP3    H121477   4.638   5.933   0.765 -0.6898  0.9754  0.7315
 7016TIP3    H221478   4.533   5.909   0.871 -0.4594 -0.0625  0.7245
 7017TIP3   OH221479   0.190   4.579   4.317  0.2207  0.0938 -0.2041
 7017TIP3    H121480   0.235   4.578   4.402  0.5009 -2.8148 -0.3321
 7017TIP3    H221481   0.256   4.612   4.256  0.6283  0.3937  0.3900
 7018TIP3   OH221482   0.808   5.240   2.049 -0.3265 -0.2140  0.1599
 7018TIP3    H121483   0.812   5.218   2.142 -2.6255 -0.2162  0.2774
 7018TIP3    H221484   0.720   5.274   2.036  0.6013  1.6318 -1.6244
 7019TIP3   OH221485   1.036   4.154   2.510 -0.1472  0.0405 -0.6854
 7019TIP3    H121486   0.961   4.213   2.503  0.7826  1.2039 -0.8821
 7019TIP3    H221487   0.997   4.066   2.510 -1.7647  0.6925  2.4227
 7020TIP3   OH221488   0.386   1.194   1.012  0.1699  0.2417  0.2224
 7020TIP3    H121489   0.337   1.265   1.052 -1.5080 -0.5891 -0.3310
 7020TIP3    H221490   0.333   1.116   1.028  0.4536 -0.4053 -1.8816
 7021TIP3   OH221491   5.528   2.348   0.165  0.7076  0.0368 -0.0381
 7021TIP3    H121492   5.606   2.349   0.220  1.1055  0.4801 -0.6039
 7021TIP3    H221493   5.455   2.364   0.226  0.9658 -1.2046  0.6181
 7022TIP3   OH221494   1.320   0.632   4.867  0.3253 -0.2361 -0.5921
 7022TIP3    H121495   1.408   0.635   4.905  0.4171  0.1546 -0.8394
 7022TIP3    H221496   1.333   0.652   4.775  0.0643 -0.9211 -0.7783
 7023TIP3   OH221497   0.197   5.237   5.801 -0.2149  0.2168 -0.2238
 7023TIP3    H121498   0.213   5.329   5.819 -0.1314  0.1410  0.0983
 7023TIP3    H221499   0.200   5.230   5.706  2.4447  0.0588 -0.1482
 7024TIP3   OH221500   1.004   5.020   3.260  0.9480  0.3679  0.4467
 7024TIP3    H121501   1.077   4.978   3.215 -0.2189 -2.0250  0.6957
 7024TIP3    H221502   0.965   5.078   3.194  2.3151  0.7302 -0.0477
 7025TIP3   OH221503   5.385   3.213   0.634 -0.0530 -0.3484 -0.1185
 7025TIP3    H121504   5.452   3.278   0.652 -0.4647  0.2877 -0.8680
 7025TIP3    H221505   5.329   3.214   0.711  1.2997 -1.5266  0.9043
 7026TIP3   OH221506   5.923   3.674   5.253  0.8169  0.3208 -0.3121
 7026TIP3    H121507   5.842   3.668   5.304  0.1124 -0.5305 -1.5146
 7026TIP3    H221508   5.992   3.653   5.316 -0.0457 -0.7311  0.2999
 7027TIP3   OH221509   5.861   3.903   0.832 -0.0919  0.1902  0.3128
 7027TIP3    H121510   5.785   3.866   0.876 -0.3795 -0.8892 -1.0380
 7027TIP3    H221511   5.825   3.948   0.756  0.6769 -1.5334 -1.1347
 7028TIP3   OH221512   4.316   5.695   3.584 -0.0668  0.0760 -0.0086
 7028TIP3    H121513   4.395   5.660   3.627  0.8042  0.9806 -0.8605
 7028TIP3    H221514   4.262   5.727   3.656  0.6426  0.0709  0.5285
 7029TIP3   OH221515   4.508   3.554   3.952 -0.2560  0.1539  0.2479
 7029TIP3    H121516   4.464   3.602   3.882  0.5521  0.2081 -0.2357
 7029TIP3    H221517   4.478   3.464   3.942  0.3782  0.0259 -0.6117
 7030TIP3   OH221518   1.333   3.442   5.936 -0.7585 -0.3843 -0.6802
 7030TIP3    H121519   1.242   3.464   5.915 -0.0415  0.7979 -2.7421
 7030TIP3    H221520   1.336   3.346   5.934 -1.6774 -0.3953 -1.9402
 7031TIP3   OH221521   0.807   0.139   2.127  0.0770  0.0956 -0.4592
 7031TIP3    H121522   0.863   0.065   2.104  0.1932  0.2178 -0.5676
 7031TIP3    H221523   0.862   0.216   2.114 -0.3842  0.2720 -1.3899
 7032TIP3   OH221524   4.137   3.792   4.349 -0.4664 -0.5519  0.9711
 7032TIP3    H121525   4.191   3.830   4.417 -0.6926  1.0862  0.2553
 7032TIP3    H221526   4.199   3.750   4.289 -0.2228 -1.3801  1.8027
 7033TIP3   OH221527   1.852   2.680   4.609 -0.1724 -0.2531 -0.3475
 7033TIP3    H121528   1.831   2.597   4.652  0.2699 -1.3658 -2.2139
 7033TIP3    H221529   1.767   2.718   4.589 -0.3802 -0.0887  0.7837
 7034TIP3   OH221530   4.925   0.079   4.110  0.5975 -0.0513 -0.3073
 7034TIP3    H121531   4.837   0.041   4.108 -0.4444  2.2838 -2.1759
 7034TIP3    H221532   4.932   0.118   4.197  0.0709 -0.8593  0.1091
 7035TIP3   OH221533   4.629   5.071   4.727 -0.4475 -0.5141 -0.0010
 7035TIP3    H121534   4.581   5.063   4.809  0.1585  0.3242  0.4372
 7035TIP3    H221535   4.675   4.988   4.718  0.6400 -0.0650  1.2483
 7036TIP3   OH221536   4.559   5.007   5.695 -0.0255 -0.1018 -0.3794
 7036TIP3    H121537   4.624   5.077   5.684 -1.6995  1.2558 -2.0293
 7036TIP3    H221538   4.597   4.932   5.650  1.3739  0.0106  0.5911
 7037TIP3   OH221539   1.941   0.306   1.269  0.0995  0.4961 -0.1328
 7037TIP3    H121540   2.016   0.307   1.329 -0.2798  1.3437  0.3432
 7037TIP3    H221541   1.979   0.288   1.184  0.3675 -3.2559  0.6905
 7038TIP3   OH221542   0.454   5.013   0.332  0.3924 -0.4228 -0.0502
 7038TIP3    H121543   0.503   4.931   0.332  1.0639 -0.0279 -1.4638
 7038TIP3    H221544   0.394   5.005   0.258  1.1643  0.7755 -0.8090
 7039TIP3   OH221545   6.012   0.859   4.717  0.0485  0.8745 -0.3990
 7039TIP3    H121546   5.999   0.903   4.802  1.9905  0.8307 -0.0650
 7039TIP3    H221547   5.970   0.918   4.654  1.2352  2.4408  0.2293
 7040TIP3   OH221548   4.696   4.607   5.857  0.5685  0.1530  0.2954
 7040TIP3    H121549   4.692   4.655   5.774  2.1247 -2.3392 -1.3029
 7040TIP3    H221550   4.621   4.640   5.907  0.3026  2.5845 -1.6109
 7041TIP3   OH221551   0.400   2.106   5.844  0.6968 -0.1550  0.2925
 7041TIP3    H121552   0.475   2.047   5.830  2.2700  2.4157 -2.6762
 7041TIP3    H221553   0.344   2.091   5.768 -0.3438  0.1368  0.9946
 7042TIP3   OH221554   1.092   2.281   0.810 -0.2769 -0.2065  0.3543
 7042TIP3    H121555   1.107   2.369   0.774 -1.1278 -1.0650 -2.2557
 7042TIP3    H221556   1.177   2.253   0.842  0.1832  1.2470  0.4607
 7043TIP3   OH221557   5.070   2.254   5.881  0.0231 -0.0551 -0.2003
 7043TIP3    H121558   4.983   2.248   5.842  0.1536 -0.1248 -0.4789
 7043TIP3    H221559   5.130   2.222   5.813  0.5649  2.7196 -1.0762
 7044TIP3   OH221560   3.417   3.605   5.593 -0.0023  0.5990  0.5677
 7044TIP3    H121561   3.459   3.608   5.507  1.1539 -1.0140  1.0404
 7044TIP3    H221562   3.485   3.634   5.653 -0.8030  1.6913  0.9423
 7045TIP3   OH221563   5.589   0.373   5.936 -0.0600  0.6884  0.0384
 7045TIP3    H121564   5.605   0.279   5.932 -0.4338  0.6330 -0.2398
 7045TIP3    H221565   5.665   0.409   5.982 -0.1891  0.1871  0.6401
 7046TIP3   OH221566   5.579   3.281   5.641 -0.2589 -0.0401 -0.0278
 7046TIP3    H121567   5.573   3.205   5.583 -2.5301 -0.3370  0.5394
 7046TIP3    H221568   5.555   3.247   5.727 -2.9508  1.6313 -0.0655
 7047TIP3   OH221569   2.815   0.959   2.846 -0.1428 -0.2194 -0.6142
 7047TIP3    H121570   2.899   0.934   2.808  0.5746  0.7524  0.2928
 7047TIP3    H221571   2.811   0.912   2.930  1.0200  2.2574  0.8932
 7048TIP3   OH221572   0.541   5.500   0.853 -0.1865 -0.6091  0.2058
 7048TIP3    H121573   0.476   5.567   0.835 -0.2219 -0.5433  0.5639
 7048TIP3    H221574   0.489   5.423   0.877 -0.1505 -0.8166 -0.3768
 7049TIP3   OH221575   6.066   1.737   3.514  0.7286 -0.0532 -0.4042
 7049TIP3    H121576   6.027   1.821   3.538  0.5496 -0.4574  0.7533
 7049TIP3    H221577   6.143   1.729   3.572  0.7209 -0.6993 -0.4812
 7050TIP3   OH221578   5.186   5.309   1.063 -0.2263 -0.1087 -0.1215
 7050TIP3    H121579   5.214   5.231   1.015  0.5304  0.3531 -0.4216
 7050TIP3    H221580   5.235   5.381   1.024  1.1927  0.1276  2.0299
 7051TIP3   OH221581   1.724   5.490   3.535  0.2238  0.5348  0.1553
 7051TIP3    H121582   1.670   5.415   3.561  0.8726  0.2360  0.6459
 7051TIP3    H221583   1.805   5.481   3.585  0.3427  1.5215  0.1626
 7052TIP3   OH221584   1.142   4.407   6.034 -0.0840  0.3667  0.2426
 7052TIP3    H121585   1.216   4.372   5.983 -0.8369 -3.6264  1.6372
 7052TIP3    H221586   1.182   4.435   6.116  0.1521 -0.1128  0.2979
 7053TIP3   OH221587   5.701   3.782   4.601  0.3983 -0.6320  0.1207
 7053TIP3    H121588   5.646   3.796   4.678  1.5786 -2.8216  1.4013
 7053TIP3    H221589   5.638   3.767   4.530 -0.7189 -2.5121  1.4495
 7054TIP3   OH221590   0.505   1.948   5.625 -0.5408  0.1296 -0.6793
 7054TIP3    H121591   0.563   2.021   5.603  1.1203 -1.6636 -2.4949
 7054TIP3    H221592   0.489   1.904   5.541 -0.4153 -2.3313  0.5435
 7055TIP3   OH221593   3.991   5.630   1.129  0.2801  0.3796  0.1906
 7055TIP3    H121594   4.027   5.702   1.181  1.2330  1.1167 -1.4451
 7055TIP3    H221595   4.064   5.568   1.121  0.5636  0.9111 -1.4059
 7056TIP3   OH221596   3.495   0.615   5.809  0.3882 -0.2100 -0.2091
 7056TIP3    H121597   3.521   0.575   5.892 -1.3290  0.0824  0.4829
 7056TIP3    H221598   3.412   0.572   5.787  0.7113 -0.1079 -1.6590
 7057TIP3   OH221599   5.749   0.691   0.603  0.3014 -0.1754  0.4144
 7057TIP3    H121600   5.821   0.671   0.662  1.2739 -0.1272 -0.7420
 7057TIP3    H221601   5.670   0.670   0.653  1.1623 -1.7929  1.1014
 7058TIP3   OH221602   2.851   3.874   5.249  0.4911  0.2897  0.2861
 7058TIP3    H121603   2.826   3.825   5.171 -1.2811 -0.2599  1.1704
 7058TIP3    H221604   2.849   3.810   5.319 -2.7923  1.7897  1.6376
 7059TIP3   OH221605   5.887   5.989   4.080  0.3681 -0.3154 -0.4516
 7059TIP3    H121606   5.826   5.949   4.142  3.1983 -1.3952  1.7737
 7059TIP3    H221607   5.862   5.954   3.995 -1.3002 -1.7387  0.5877
 7060TIP3   OH221608   3.430   1.412   0.726  0.0614  0.4867 -0.1209
 7060TIP3    H121609   3.460   1.323   0.710 -0.1124  0.4458 -0.2234
 7060TIP3    H221610   3.488   1.467   0.674  2.2810  0.7087  2.4384
 7061TIP3   OH221611   3.878   0.066   0.983  0.2324 -0.1198 -0.2498
 7061TIP3    H121612   3.875   0.154   1.022  0.5817 -0.0199 -0.4477
 7061TIP3    H221613   3.819   0.014   1.037  0.6114  0.0489  0.3341
 7062TIP3   OH221614   1.999   2.284   1.374 -0.6447  0.0092  0.3313
 7062TIP3    H121615   1.963   2.275   1.286 -1.9745  0.0918  0.8514
 7062TIP3    H221616   2.086   2.246   1.369 -0.4884  0.5439 -1.1689
 7063TIP3   OH221617   3.994   5.162   0.291  0.6254 -0.0419  0.0072
 7063TIP3    H121618   3.933   5.111   0.344  1.3724 -0.7532  0.1911
 7063TIP3    H221619   4.080   5.129   0.314  1.1639  1.5790  0.4209
 7064TIP3   OH221620   1.999   1.886   0.158  0.3895  0.4829 -0.0009
 7064TIP3    H121621   2.042   1.837   0.088 -0.0721 -0.4387  0.3404
 7064TIP3    H221622   1.981   1.820   0.225 -1.1182  0.9351  0.0624
 7065TIP3   OH221623   3.009   0.514   5.861  0.2704  0.0283  0.2219
 7065TIP3    H121624   3.098   0.486   5.840  1.0232  0.0186  3.2076
 7065TIP3    H221625   2.960   0.433   5.874 -0.0952  0.0434 -0.9348
 7066TIP3   OH221626   6.091   3.251   5.433  0.2714  0.1478  0.1001
 7066TIP3    H121627   6.174   3.298   5.422  0.4449 -0.1191  0.2701
 7066TIP3    H221628   6.034   3.287   5.365  0.5852  0.2074 -0.1333
 7067TIP3   OH221629   2.174   5.906   3.947  0.1257 -0.4978  0.4284
 7067TIP3    H121630   2.184   5.811   3.942  0.7713 -0.4028 -0.1078
 7067TIP3    H221631   2.087   5.924   3.910  0.4826 -0.7682 -0.5237
 7068TIP3   OH221632   5.030   5.363   4.097  0.3249  0.5336  0.1806
 7068TIP3    H121633   4.949   5.367   4.045  0.4947  2.3260  0.0240
 7068TIP3    H221634   5.043   5.452   4.128  2.6203  0.4101 -0.3520
 7069TIP3   OH221635   6.000   5.704   5.970  0.2614  0.0341 -0.4958
 7069TIP3    H121636   6.093   5.693   5.988  0.5433  1.3724 -1.0436
 7069TIP3    H221637   5.997   5.745   5.884 -0.8433 -0.2269 -0.5861
 7070TIP3   OH221638   1.421   0.400   0.664 -0.3310  0.2717  0.2098
 7070TIP3    H121639   1.381   0.471   0.714 -1.7817  0.3764 -1.0353
 7070TIP3    H221640   1.360   0.386   0.591  0.7056 -1.2338 -0.3831
 7071TIP3   OH221641   5.949   1.353   1.245 -0.1037  0.2603  0.3328
 7071TIP3    H121642   5.971   1.289   1.312  0.0104  1.3199  1.3152
 7071TIP3    H221643   5.861   1.328   1.216  0.1668 -0.6722  0.2958
 7072TIP3   OH221644   5.270   5.744   0.778  0.3714  0.4202  0.2906
 7072TIP3    H121645   5.362   5.720   0.787 -0.0378 -0.5258  2.1259
 7072TIP3    H221646   5.258   5.815   0.840 -0.5259 -0.5845  1.2846
 7073TIP3   OH221647   0.268   1.333   5.201 -0.2842  1.0251 -0.1632
 7073TIP3    H121648   0.252   1.238   5.197  1.0302  0.8599 -2.4068
 7073TIP3    H221649   0.311   1.353   5.117  0.8738  3.3358  0.9576
 7074TIP3   OH221650   0.372   5.475   4.532  0.0317  0.0871  0.1686
 7074TIP3    H121651   0.415   5.485   4.447  2.3518  0.7510  1.3760
 7074TIP3    H221652   0.286   5.440   4.512  0.6471  0.0128 -2.4421
 7075TIP3   OH221653   2.996   0.463   5.238  0.2330  0.5563 -0.1755
 7075TIP3    H121654   2.985   0.532   5.303 -0.8318  0.5580 -0.3514
 7075TIP3    H221655   2.948   0.388   5.274  1.4985 -0.1524  0.0870
 7076TIP3   OH221656   3.676   0.059   3.669  0.4135 -0.0659  0.0363
 7076TIP3    H121657   3.652  -0.029   3.697  2.7823 -0.3265  1.3348
 7076TIP3    H221658   3.699   0.049   3.577 -0.9785 -0.4703 -0.2762
 7077TIP3   OH221659   4.740   5.834   4.760  0.1413 -0.4213  0.1706
 7077TIP3    H121660   4.674   5.904   4.764  0.6789  0.0226  1.4083
 7077TIP3    H221661   4.790   5.853   4.680 -0.7326 -0.3103 -0.3540
 7078TIP3   OH221662   6.055   1.346   5.756 -0.0835 -0.3668  0.6886
 7078TIP3    H121663   6.103   1.281   5.807 -0.6724 -0.6052  0.9375
 7078TIP3    H221664   6.030   1.301   5.676 -1.8477 -0.9396  1.5264
   6.10000   6.10000   6.10000
